LAMMPS (10 Sep 2025 - Development - patch_10Sep2025-148-gcf68ceb8e3-modified)
  using 1 OpenMP thread(s) per MPI task
# Depositing TIP3P water into MOF with QeQ charges obtained with Ongari scheme

processors * * * map xyz

units           real
atom_style      full
boundary        p p p

read_data initial.data
Reading data file ...
  triclinic box = (0 0 0) to (39.006 33.780187 22.245001) with tilt (-19.503 0 0)
WARNING: Triclinic box skew is large. LAMMPS will run inefficiently. (src/domain.cpp:221)
  1 by 1 by 1 MPI processor grid
  reading atoms ...
  891 atoms
  scanning bonds ...
  6 = max bonds/atom
  scanning angles ...
  15 = max angles/atom
  scanning dihedrals ...
  20 = max dihedrals/atom
  scanning impropers ...
  1 = max impropers/atom
  triclinic box = (0 0 0) to (39.006 33.780187 22.245001) with tilt (-19.503 0 0)
WARNING: Triclinic box skew is large. LAMMPS will run inefficiently. (src/domain.cpp:221)
  1 by 1 by 1 MPI processor grid
  reading bonds ...
  1058 bonds
  reading angles ...
  1937 angles
  reading dihedrals ...
  3072 dihedrals
  reading impropers ...
  480 impropers
Finding 1-2 1-3 1-4 neighbors ...
  special bond factors lj:    0        0        0       
  special bond factors coul:  0        0        0       
     6 = max # of 1-2 neighbors
    13 = max # of 1-3 neighbors
    25 = max # of 1-4 neighbors
    24 = max # of special neighbors
  special bonds CPU = 0.001 seconds
  read_data CPU = 0.025 seconds

group           mof type 1 2 3 4 5 6 7 8 9 10 11
888 atoms in group mof
group           h2o type 12 13
3 atoms in group h2o

## Bonded styles ##
bond_style      harmonic
angle_style     harmonic
dihedral_style  harmonic
improper_style  cvff

## MOF ##
bond_coeff      1      215.077009      1.79813919 # Cr1 oc
bond_coeff      2     171.3605365      1.91925239 # Cr1 o
bond_coeff      3      30.0025985      1.70066041 # Cr2 oc
bond_coeff      4     113.3849035      1.80031867 # Cr2 o
bond_coeff      5       79.013065      2.25449382 # Cr2 Cl
bond_coeff      6           345.9      1.49100000 # c ca
bond_coeff      7           637.5      1.21800000 # c o
bond_coeff      8           461.1      1.39800000 # ca ca
bond_coeff      9           345.8      1.08600000 # ca ha
bond_coeff     10           450.2      1.40600000 # ca cp
bond_coeff     11           351.4      1.48500000 # cp cp
bond_coeff     12           321.0      1.51600000 # c3 ca
bond_coeff     13           330.6      1.09700000 # c3 hc
angle_coeff    1     57.4090405     129.511222 # Cr1-oc-Cr1
angle_coeff    2      54.896879     115.919290 # Cr1-oc-Cr2
angle_coeff    3     10.4928115     115.127987 # Cr1-o-c
angle_coeff    4      22.587082      94.926514 # oc-Cr1-o
angle_coeff    5     10.1522065     157.100593 # o-Cr1-o
angle_coeff    6       8.591407     133.558820 # Cr2-o-c
angle_coeff    7      27.362034      88.698347 # oc-Cr2-o
angle_coeff    8      16.499101     183.006723 # oc-Cr2-Cl
angle_coeff    9     15.7281545     182.046844 # o-Cr2-o
angle_coeff   10     18.6572345      96.972033 # o-Cr2-Cl
angle_coeff   11           64.3     120.300000 # c-ca-ca
angle_coeff   12           68.7     122.600000 # ca-c-o
angle_coeff   13           66.6     120.000000 # ca-ca-ca
angle_coeff   14           48.2     119.900000 # ca-ca-ha
angle_coeff   15           66.3     120.700000 # ca-ca-cp
angle_coeff   16           66.7     118.400000 # ca-cp-ca
angle_coeff   17           64.0     121.100000 # ca-cp-cp
angle_coeff   18           48.0     119.900000 # cp-ca-ha
angle_coeff   19           72.4     90.0000000 # cp-cp-cp
angle_coeff   20           63.5     120.800000 # c3-ca-ca
angle_coeff   21           63.6     112.200000 # ca-c3-ca
angle_coeff   22           46.8     110.500000 # ca-c3-hc
angle_coeff   23           77.9     130.200000 # o-c-o
dihedral_coeff    1          5.0040              -1               2 # Cr1-o-c-ca
dihedral_coeff    2          3.2376               1               2 # Cr1-o-c-o
dihedral_coeff    3          0.6374               1               2 # oc-Cr1-o-c
dihedral_coeff    4          4.6518              -1               2 # Cr2-o-c-ca
dihedral_coeff    5          2.6899               1               2 # Cr2-o-c-o
dihedral_coeff    6          2.1991               1               2 # oc-Cr2-o-c
dihedral_coeff    7          2.1450              -1               2 # Cl-Cr2-o-c
dihedral_coeff    8          0.0000              -1               2 # Cr1-oc-Cr1-o
dihedral_coeff    9          0.0000              -1               2 # Cr1-oc-Cr2-o
dihedral_coeff   10          0.0000               1               2 # Cr1-oc-Cr2-Cl
dihedral_coeff   11          0.0000              -1               2 # o-Cr1-o-c
dihedral_coeff   12          0.0000              -1               2 # o-Cr1-oc-Cr2
dihedral_coeff   13          0.0000              -1               2 # o-Cr2-o-c
dihedral_coeff   14          3.6250              -1               2 # c-ca-ca-ca
dihedral_coeff   15          3.6250              -1               2 # c-ca-ca-ha
dihedral_coeff   16          3.6250              -1               2 # ca-ca-ca-cp
dihedral_coeff   17          3.6250              -1               2 # ca-ca-ca-ha
dihedral_coeff   18          3.6250              -1               2 # ca-ca-ca-ca
dihedral_coeff   19          3.6250              -1               2 # ca-ca-cp-ca
dihedral_coeff   20          3.6250              -1               2 # ca-ca-cp-cp
dihedral_coeff   21          1.0000              -1               2 # ca-cp-cp-cp
dihedral_coeff   22          1.0000              -1               2 # ca-cp-cp-ca
dihedral_coeff   23          1.0000              -1               2 # cp-cp-cp-cp
dihedral_coeff   24          3.6250              -1               2 # ha-ca-cp-cp
dihedral_coeff   25          3.6250              -1               2 # c3-ca-ca-cp
dihedral_coeff   26          3.6250              -1               2 # c3-ca-ca-ca
dihedral_coeff   27          0.0000               1               2 # ca-c3-ca-ca
dihedral_coeff   28          0.0000               1               2 # hc-c3-ca-ca
dihedral_coeff   29          3.6250              -1               2 # c3-ca-ca-c3
dihedral_coeff   30          3.6250              -1               2 # cp-ca-ca-ha
dihedral_coeff   31          3.6250              -1               2 # ha-ca-ca-ha
dihedral_coeff   32          3.6250              -1               2 # ha-ca-cp-ca
dihedral_coeff   33          3.6250              -1               2 # c3-ca-ca-ha
dihedral_coeff   34          1.0000              -1               2 # o-c-ca-ca
improper_coeff    1          1.1000              -1               2 # c-ca-o-o
improper_coeff    2          1.1000              -1               2 # ca-c-ca-ca
improper_coeff    3          1.1000              -1               2 # ca-ca-ca-ha
improper_coeff    4          1.1000              -1               2 # ca-ca-cp-ha
improper_coeff    5          1.1000              -1               2 # cp-ca-ca-cp
improper_coeff    6          1.1000              -1               2 # cp-ca-cp-cp
improper_coeff    7          1.1000              -1               2 # ca-c3-ca-ca

## H2O ##
#set             type 3 charge -1.1128
#set             type 4 charge  0.5564
bond_coeff       14 0.0 0.0
angle_coeff      24 0.0 0.0

## LJ ##
pair_style      hybrid/overlay mbx 9.0 lj/cut 9.0 coul/exclude 9.0 buck 9.0
pair_modify     tail yes


## MOF pair coefficients ##
pair_coeff      3      3        lj/cut      0.086000      3.399670
pair_coeff      3      4        lj/cut      0.086000      3.399670
pair_coeff      3      5        lj/cut      0.086000      3.399670
pair_coeff      3      6        lj/cut      0.096997      3.399670
pair_coeff      3     11        lj/cut      0.035917      2.999656
pair_coeff      3     10        lj/cut      0.036745      3.024601
pair_coeff      3      7        lj/cut      0.134387      3.179618
pair_coeff      3      8        lj/cut      0.134387      3.179618
pair_coeff      3      9        lj/cut      0.139721      3.458023
pair_coeff      4      4        lj/cut      0.086000      3.399670
pair_coeff      4      5        lj/cut      0.086000      3.399670
pair_coeff      4      6        lj/cut      0.096997      3.399670
pair_coeff      4     11        lj/cut      0.035917      2.999656
pair_coeff      4     10        lj/cut      0.036745      3.024601
pair_coeff      4      7        lj/cut      0.134387      3.179618
pair_coeff      4      8        lj/cut      0.134387      3.179618
pair_coeff      4      9        lj/cut      0.139721      3.458023
pair_coeff      5      5        lj/cut      0.086000      3.399670
pair_coeff      5      6        lj/cut      0.096997      3.399670
pair_coeff      5     11        lj/cut      0.035917      2.999656
pair_coeff      5     10        lj/cut      0.036745      3.024601
pair_coeff      5      7        lj/cut      0.134387      3.179618
pair_coeff      5      8        lj/cut      0.134387      3.179618
pair_coeff      5      9        lj/cut      0.139721      3.458023
pair_coeff      6      6        lj/cut      0.109400      3.399670
pair_coeff      6     11        lj/cut      0.040509      2.999656
pair_coeff      6     10        lj/cut      0.041444      3.024601
pair_coeff      6      7        lj/cut      0.151572      3.179618
pair_coeff      6      8        lj/cut      0.151572      3.179618
pair_coeff      6      9        lj/cut      0.157587      3.458023
pair_coeff     11     11        lj/cut      0.015000      2.599642
pair_coeff     10     11        lj/cut      0.015346      2.624588
pair_coeff     10     10        lj/cut      0.015700      2.649533
pair_coeff      7     11        lj/cut      0.056125      2.779604
pair_coeff      7     10        lj/cut      0.057420      2.804549
pair_coeff      7      7        lj/cut      0.210000      2.959566
pair_coeff      7      8        lj/cut      0.210000      2.959566
pair_coeff      7      9        lj/cut      0.218335      3.237971
pair_coeff      8     11        lj/cut      0.056125      2.779604
pair_coeff      8     10        lj/cut      0.057420      2.804549
pair_coeff      8      8        lj/cut      0.210000      2.959566
pair_coeff      8      9        lj/cut      0.218335      3.237971
pair_coeff      9     11        lj/cut      0.058352      3.058010
pair_coeff      9     10        lj/cut      0.059698      3.082955
pair_coeff      9      9        lj/cut      0.227000      3.516377
pair_coeff      1      3        lj/cut      0.035917      3.046428
pair_coeff      1      4        lj/cut      0.035917      3.046428
pair_coeff      1      5        lj/cut      0.035917      3.046428
pair_coeff      1      6        lj/cut      0.040509      3.046428
pair_coeff      1     11        lj/cut      0.015000      2.646415
pair_coeff      1     10        lj/cut      0.015346      2.671360
pair_coeff      1      7        lj/cut      0.056125      2.826376
pair_coeff      1      8        lj/cut      0.056125      2.826376
pair_coeff      1      9        lj/cut      0.058352      3.104782
pair_coeff      1      1        lj/cut      0.015000      2.693187
pair_coeff      1      2        lj/cut      0.015000      2.693187
pair_coeff      2      3        lj/cut      0.035917      3.046428
pair_coeff      2      4        lj/cut      0.035917      3.046428
pair_coeff      2      5        lj/cut      0.035917      3.046428
pair_coeff      2      6        lj/cut      0.040509      3.046428
pair_coeff      2     11        lj/cut      0.015000      2.646415
pair_coeff      2     10        lj/cut      0.015346      2.671360
pair_coeff      2      7        lj/cut      0.056125      2.826376
pair_coeff      2      8        lj/cut      0.056125      2.826376
pair_coeff      2      9        lj/cut      0.058352      3.104782
pair_coeff      2      2        lj/cut      0.015000      2.693187


## Mixed ##
pair_coeff       1      12    buck      168233.0    0.22     1470.0
pair_coeff       1      13    lj/cut    0.000000    0.000000
pair_coeff       2      12    lj/cut    0.052705    2.926043
pair_coeff       2      13    lj/cut    0.000000    0.000000
pair_coeff       3      12    lj/cut    0.126199    3.279285
pair_coeff       3      13    lj/cut    0.000000    0.000000
pair_coeff       4      12    lj/cut    0.126199    3.279285
pair_coeff       4      13    lj/cut    0.000000    0.000000
pair_coeff       5      12    lj/cut    0.126199    3.279285
pair_coeff       5      13    lj/cut    0.000000    0.000000
pair_coeff       6      12    lj/cut    0.142337    3.279285
pair_coeff       6      13    lj/cut    0.000000    0.000000
pair_coeff       7      12    lj/cut    0.197205    3.059233
pair_coeff       7      13    buck      11292.0     0.296    597.0
pair_coeff       8      12    lj/cut    0.197205    3.059233
pair_coeff       8      13    lj/cut    0.000000    0.000000
pair_coeff       9      12    lj/cut    0.205032    3.337639
pair_coeff       9      13    lj/cut    0.000000    0.000000
pair_coeff      10      12    lj/cut    0.053921    2.904216
pair_coeff      10      13    lj/cut    0.000000    0.000000
pair_coeff      11      12    lj/cut    0.052705    2.879271
pair_coeff      11      13    lj/cut    0.000000    0.000000

#MBX-water
pair_coeff      * * mbx  2 dp1 1*11 h2o 12 13 13 json mbx.json

#coul exclude
pair_coeff      1*11 1*11 coul/exclude

## Non-bonded k-space ##
#special_bonds   amber


neighbor        2.0 bin
neigh_modify	every 1 delay 1 check yes

timestep        0.2
compute         mbx all pair mbx
variable        e1bpip    equal c_mbx[1]
variable        e2bpip    equal c_mbx[2]
variable        e3bpip    equal c_mbx[3]
variable        e4bpip    equal c_mbx[4]
variable        edisp     equal c_mbx[5]
variable        ebuck     equal c_mbx[6]
variable        eele      equal c_mbx[7]
variable        etot      equal c_mbx[8]
variable        eperm     equal c_mbx[9]
variable        eind      equal c_mbx[10]

thermo_style    custom step time temp evdwl ecoul epair ebond eangle edihed eimp emol elong etail v_e1bpip v_e2bpip v_e3bpip v_e4bpip v_edisp v_ebuck v_eele v_etot pe etotal
thermo          1
thermo_modify   flush yes

#fix             wshake water shake 1e-5 50 0 b 14 a 24 mol h2o
fix              mynvt all nvt temp 298.15 298.15 $(100.0*dt)
fix              mynvt all nvt temp 298.15 298.15 20


velocity        all create 298.15 428879 rot yes dist gaussian
#velocity        all zero linear
#velocity        all zero angular

# dump            1 all custom 10 dump.lammpstrj id type x y z fx fy fz vx vy vz
# dump_modify     1 sort id

# restart         5 restart.inter.1 restart.inter.2

run             100

CITE-CITE-CITE-CITE-CITE-CITE-CITE-CITE-CITE-CITE-CITE-CITE-CITE

Your simulation uses code contributions which should be cited:

- pair mbx command:

@article{10.1063/5.0156036,
 author = {Riera, Marc and Knight, Christopher and Bull-Vulpe, Ethan F. and Zhu, Xuanyu and Agnew, Henry and Smith, Daniel G. A. and Simmonett, Andrew C. and Paesani, Francesco},
 title = "{MBX: A many-body energy and force calculator for data-driven many-body simulations}",
 journal = {The Journal of Chemical Physics},
 volume = {159},
 number = {5},
 pages = {054802},
 year = {2023},
 doi = {10.1063/5.0156036},
}

CITE-CITE-CITE-CITE-CITE-CITE-CITE-CITE-CITE-CITE-CITE-CITE-CITE

Generated 0 of 78 mixed pair_coeff terms from geometric mixing rule
Neighbor list info ...
  update: every = 1 steps, delay = 1 steps, check = yes
  max neighbors/atom: 2000, page size: 100000
  master list distance cutoff = 11
  ghost atom cutoff = 11
  binsize = 5.5, bins = 11 7 5
  5 neighbor lists, perpetual/occasional/extra = 5 0 0
  (1) pair mbx, perpetual, skip from (5)
      attributes: half, newton on
      pair build: skip
      stencil: none
      bin: none
  (2) pair lj/cut, perpetual, skip from (5)
      attributes: half, newton on
      pair build: skip
      stencil: none
      bin: none
  (3) pair coul/exclude, perpetual, skip from (5)
      attributes: half, newton on
      pair build: skip
      stencil: none
      bin: none
  (4) pair buck, perpetual, skip from (5)
      attributes: half, newton on
      pair build: skip
      stencil: none
      bin: none
  (5) neighbor class addition, perpetual
      attributes: half, newton on
      pair build: half/bin/newton/tri
      stencil: half/bin/3d/tri
      bin: standard
WARNING: Inconsistent image flags
For more information see https://docs.lammps.org/err0027 (src/domain.cpp:1052)
Per MPI rank memory allocation (min/avg/max) = 21.89 | 21.89 | 21.89 Mbytes
   Step          Time           Temp          E_vdwl         E_coul         E_pair         E_bond        E_angle        E_dihed        E_impro         E_mol          E_long         E_tail        v_e1bpip       v_e2bpip       v_e3bpip       v_e4bpip       v_edisp        v_ebuck         v_eele         v_etot         PotEng         TotEng    
         0   0              298.15        -8176.5335      11692.335      3515.8017      333.85691      4108.0644      1369.7935      5.4245589      5817.1394      0             -23.891377      0.45689944     0              0              0             -2.3771962e-06  0             -7923.955      -1.1954777      9332.9411      10123.909    
         1   0.2            298.02821     -8176.4176      11692.427      3516.0089      333.6563       4108.171       1369.9997      5.4284001      5817.2554      0             -23.891377      0.47083048     0              0              0             -2.3321913e-06  0             -7923.993      -1.1939972      9333.2643      10123.91     
         2   0.4            297.6882      -8176.4177      11692.557      3516.1397      334.75222      4107.5951      1370.2305      5.4515857      5818.0294      0             -23.891377      0.47916766     0              0              0             -2.280486e-06   0             -7924.0977     -1.1919493      9334.1692      10123.912    
         3   0.6            297.15736     -8176.526       11692.725      3516.1993      337.07175      4106.3355      1370.4862      5.4941617      5819.3876      0             -23.891377      0.48297311     0              0              0             -2.2224302e-06  0             -7924.2667     -1.1893529      9335.5869      10123.922    
         4   0.8            296.48947     -8176.741       11692.927      3516.1858      340.47087      4104.3899      1370.7671      5.556231       5821.1842      0             -23.891377      0.48375375     0              0              0             -2.1583995e-06  0             -7924.4962     -1.1862088      9337.37        10123.933    
         5   1              295.76174     -8177.0515      11693.158      3516.1062      344.74255      4101.7548      1371.0745      5.6379497      5823.2098      0             -23.891377      0.48332938     0              0              0             -2.0887925e-06  0             -7924.7819     -1.1825651      9339.316       10123.948    
         6   1.2            295.07036     -8177.4469      11693.414      3515.9666      349.62842      4098.4257      1371.41        5.7395228      5825.2036      0             -23.891377      0.48367237     0              0              0             -2.0140265e-06  0             -7925.1189     -1.178426       9341.1702      10123.969    
         7   1.4            294.52509     -8177.9244      11693.689      3515.7647      354.83332      4094.3975      1371.7756      5.8611975      5826.8676      0             -23.891377      0.48672978     0              0              0             -1.9345316e-06  0             -7925.5013     -1.1738191      9342.6323      10123.984    
         8   1.6            294.24292     -8178.4583      11693.979      3515.5207      360.04204      4089.6649      1372.1738      6.0032559      5827.884       0             -23.891377      0.49423877     0              0              0             -1.8507431e-06  0             -7925.9232     -1.1687669      9343.4047      10124.008    
         9   1.8            294.34132     -8179.0432      11694.278      3515.2346      364.93727      4084.2226      1372.6075      6.1660071      5827.9334      0             -23.891377      0.5075514      0              0              0             -1.763093e-06   0             -7926.3783     -1.1632904      9343.168       10124.032    
        10   2              294.93126     -8179.6664      11694.58       3514.9136      369.21798      4078.0657      1373.0799      6.3497779      5826.7134      0             -23.891377      0.52748295     0              0              0             -1.6720022e-06  0             -7926.86       -1.1574094      9341.6269      10124.056    
        11   2.2            296.11047     -8180.3124      11694.88       3514.5679      372.61712      4071.1905      1373.5944      6.5549028      5823.9569      0             -23.891377      0.55419718     0              0              0             -1.5778741e-06  0             -7927.3622     -1.1511414      9338.5248      10124.083    
        12   2.4            297.95735     -8180.9724      11695.174      3514.2013      374.91776      4063.5946      1374.1548      6.7817146      5819.4488      0             -23.891377      0.58714035     0              0              0             -1.4810919e-06  0             -7927.8785     -1.1445029      9333.6502      10124.107    
        13   2.6            300.52562     -8181.6399      11695.456      3513.8161      375.96689      4055.2775      1374.7647      7.0305342      5813.0397      0             -23.891377      0.62503248     0              0              0             -1.3820177e-06  0             -7928.4033     -1.1375093      9326.8558      10124.127    
        14   2.8            303.84026     -8182.3113      11695.723      3513.4119      375.68603      4046.2412      1375.4281      7.3016609      5804.6569      0             -23.891377      0.66592079     0              0              0             -1.2809982e-06  0             -7928.9312     -1.1301761      9318.0688      10124.133    
        15   3              307.89473     -8182.9673      11695.972      3513.0049      374.07811      4036.4902      1376.1487      7.5953628      5794.3123      0             -23.891377      0.70729539     0              0              0             -1.1783728e-06  0             -7929.4575     -1.1225196      9307.3172      10124.138    
        16   3.2            312.64965     -8183.6105      11696.201      3512.5901      371.23031      4026.0326      1376.9302      7.9118685      5782.105       0             -23.891377      0.74626222     0              0              0             -1.0744873e-06  0             -7929.9781     -1.1145582      9294.6951      10124.13     
        17   3.4            318.03324     -8184.2357      11696.407      3512.1711      367.31255      4014.8805      1377.7762      8.2513588      5768.2206      0             -23.891377      0.77976312     0              0              0             -9.6970949e-07  0             -7930.4895     -1.1063132      9280.3916      10124.109    
        18   3.6            323.94329     -8184.8411      11696.59       3511.7487      362.57176      4003.0498      1378.6899      8.6139595      5752.9254      0             -23.891377      0.80482756     0              0              0             -8.6444861e-07  0             -7930.9891     -1.0978097      9264.6741      10124.07     
        19   3.8            330.2507      -8185.4257      11696.75       3511.324       357.32209      3990.5608      1379.6744      8.9997351      5736.557       0             -23.891377      0.81883614     0              0              0             -7.5917321e-07  0             -7931.4746     -1.0890768      9247.8811      10124.01     
        20   4              336.80437     -8185.9827      11696.887      3510.9041      351.93157      3977.4386      1380.7322      9.408683       5719.511       0             -23.891377      0.81977242     0              0              0             -6.5442882e-07  0             -7931.9446     -1.0801479      9230.4151      10123.93     
        21   4.2            343.43736     -8186.5148      11697.002      3510.4875      346.80584      3963.7124      1381.8655      9.8407288      5702.2244      0             -23.891377      0.80643785     0              0              0             -5.5085198e-07  0             -7932.3982     -1.0710601      9212.712       10123.824    
        22   4.4            349.97375     -8187.0194      11697.098      3510.0782      342.3697       3949.4162      1383.076       10.295722      5685.1576      0             -23.891377      0.77860541     0              0              0             -4.4917897e-07  0             -7932.8347     -1.0618539      9195.2358      10123.689    
        23   4.6            356.23623     -8187.4955      11697.175      3509.6793      339.04735      3934.5884      1384.3648      10.773433      5668.7739      0             -23.891377      0.7370918      0              0              0             -3.5024791e-07  0             -7933.2539     -1.052572       9178.4532      10123.52     
        24   4.8            362.05375     -8187.9418      11697.236      3509.2937      337.24233      3919.2714      1385.7324      11.273549      5653.5197      0             -23.891377      0.68373471     0              0              0             -2.5499324e-07  0             -7933.6559     -1.0432572      9162.8134      10123.313    
        25   5              367.26909     -8188.357       11697.282      3508.9252      337.31812      3903.5116      1387.1787      11.795671      5639.8042      0             -23.891377      0.62127217     0              0              0             -1.6443172e-07  0             -7934.0405     -1.0339515      9148.7293      10123.065    
        26   5.2            371.7458      -8188.7425      11697.317      3508.5741      339.58033      3887.359       1388.703       12.339315      5627.9817      0             -23.891377      0.55313241     0              0              0             -7.9640078e-08  0             -7934.408      -1.0248856      9136.5558      10122.768    
        27   5.4            375.37433     -8189.0926      11697.341      3508.2481      344.26131      3870.8666      1390.3038      12.903906      5618.3356      0             -23.891377      0.48315355     0              0              0             -1.7248112e-09  0             -7934.7583     -1.0157376      9126.5837      10122.422    
        28   5.6            378.07689     -8189.3974      11697.356      3507.9587      351.50808      3854.0903      1391.9787      13.488779      5611.0659      0             -23.891377      0.41526311     0              0              0              6.8214564e-08  0             -7935.0911     -1.006696       9119.0246      10122.033    
        29   5.8            379.81091     -8189.6617      11697.364      3507.7023      361.37399      3837.0882      1393.7247      14.093179      5606.2801      0             -23.891377      0.35314945     0              0              0              1.2912711e-07  0             -7935.406      -0.99778519     9113.9824      10121.591    
        30   6              380.57094     -8189.8844      11697.365      3507.4811      373.81466      3819.92        1395.5381      14.716258      5603.989       0             -23.891377      0.29996097     0              0              0              1.8005532e-07  0             -7935.7023     -0.98902387     9111.4701      10121.095    
        31   6.2            380.38872     -8190.0576      11697.361      3507.3033      388.68834      3802.6469      1397.4141      15.35708       5604.1064      0             -23.891377      0.25806262     0              0              0              2.2018001e-07  0             -7935.9789     -0.98042531     9111.4096      10120.551    
        32   6.4            379.33167     -8190.1907      11697.35       3507.1597      405.76068      3785.3305      1399.3472      16.014619      5606.453       0             -23.891377      0.22887169     0              0              0              2.4886395e-07  0             -7936.2347     -0.97199717     9113.6127      10119.95     
        33   6.6            377.49968     -8190.2702      11697.334      3507.0639      424.71369      3768.0328      1401.3311      16.687764      5610.7654      0             -23.891377      0.21278456     0              0              0              2.6569109e-07  0             -7936.4682     -0.96374188     9117.8292      10119.306    
        34   6.8            375.02044     -8190.3095      11697.311      3507.0019      445.15846      3750.8152      1403.3587      17.375322      5616.7077      0             -23.891377      0.20919516     0              0              0              2.7049963e-07  0             -7936.6777     -0.95565706     9123.7096      10118.609    
        35   7              372.04358     -8190.2974      11697.282      3506.9843      466.65095      3733.7381      1405.4222      18.07602       5623.8873      0             -23.891377      0.21659694     0              0              0              2.6340726e-07  0             -7936.8618     -0.94773617     9130.8716      10117.874    
        36   7.2            368.73386     -8190.2435      11697.245      3507.001       488.71023      3716.8606      1407.5128      18.788515      5631.8721      0             -23.891377      0.23275235     0              0              0              2.448267e-07   0             -7937.0187     -0.93996916     9138.8731      10117.095    
        37   7.4            365.2638      -8190.1467      11697.199      3507.0526      510.83811      3700.2395      1409.6211      19.511398      5640.2102      0             -23.891377      0.25491017     0              0              0              2.1547087e-07  0             -7937.1469     -0.93214362     9147.2627      10116.279    
        38   7.6            361.80605     -8190.0169      11697.145      3507.1285      532.53932      3683.9293      1411.7373      20.243204      5648.4491      0             -23.891377      0.28004859     0              0              0              1.7634652e-07  0             -7937.2452     -0.92466185     9155.5776      10115.42     
        39   7.8            358.5259      -8189.8518      11697.083      3507.2311      553.3413       3667.9815      1413.8507      20.982415      5656.1559      0             -23.891377      0.30512406     0              0              0              1.2873628e-07  0             -7937.3127     -0.91729076     9163.3871      10114.528    
        40   8              355.57436     -8189.653       11697.012      3507.3589      572.8125       3652.4446      1415.9503      21.727479      5662.9349      0             -23.891377      0.32730616     0              0              0              7.4168122e-08  0             -7937.3489     -0.91001283     9170.2939      10113.605    
        41   8.2            353.08235     -8189.4293      11696.933      3507.5039      590.57856      3637.3628      1418.0247      22.47681       5668.4429      0             -23.891377      0.34418387     0              0              0              1.4372779e-08  0             -7937.3536     -0.90281031     9175.9467      10112.646    
        42   8.4            351.15585     -8189.178       11696.848      3507.6697      606.33539      3622.7752      1420.0622      23.228805      5672.4016      0             -23.891377      0.35393173     0              0              0             -4.8771241e-08  0             -7937.3274     -0.89566562     9180.0712      10111.66     
        43   8.6            349.87208     -8188.9101      11696.757      3507.8469      619.85876      3608.7168      1422.0507      23.981854      5674.6082      0             -23.891377      0.35542775     0              0              0             -1.1330542e-07  0             -7937.2714     -0.88856162     9182.4551      10110.638    
        44   8.8            349.2774      -8188.625       11696.663      3508.0384      631.00986      3595.218       1423.9784      24.73435       5674.9405      0             -23.891377      0.34831885     0              0              0             -1.7727129e-07  0             -7937.1871     -0.88148178     9182.9789      10109.584    
        45   9              349.38692     -8188.3273      11696.569      3508.2421      639.73672      3582.304       1425.8332      25.484698      5673.3586      0             -23.891377      0.333032       0              0              0             -2.3880346e-07  0             -7937.0764     -0.87441033     9181.6006      10108.497    
        46   9.2            350.18557     -8188.018       11696.478      3508.4599      646.07145      3569.9951      1427.6034      26.231331      5669.9013      0             -23.891377      0.31073231     0              0              0             -2.9623541e-07  0             -7936.9421     -0.8673323      9178.3612      10107.376    
        47   9.4            351.63069     -8187.6974      11696.392      3508.695       650.12352      3558.3065      1429.2774      26.972718      5664.6801      0             -23.891377      0.28323126     0              0              0             -3.4821694e-07  0             -7936.7868     -0.86023359     9173.3751      10106.224    
        48   9.6            353.65598     -8187.3713      11696.316      3508.9451      652.06953      3547.248       1430.8439      27.707372      5657.8689      0             -23.891377      0.25285057     0              0              0             -3.9380308e-07  0             -7936.6136     -0.85310102     9166.8139      10105.035    
        49   9.8            356.17647     -8187.0438      11696.253      3509.2096      652.13997      3536.8245      1432.2924      28.433864      5649.6907      0             -23.891377      0.22224908     0              0              0             -4.3246265e-07  0             -7936.4257     -0.84592242     9158.9003      10103.808    
        50   10             359.09434     -8186.7062      11696.207      3509.5006      650.60387      3527.0357      1433.6124      29.150829      5640.4028      0             -23.891377      0.19422214     0              0              0             -4.6405676e-07  0             -7936.2263     -0.83868686     9149.9035      10102.552    
        51   10.2           362.30525     -8186.3695      11696.18       3509.8106      647.75197      3517.8765      1434.7947      29.856976      5630.2801      0             -23.891377      0.17148479     0              0              0             -4.8881366e-07  0             -7936.0182     -0.83138484     9140.0908      10101.258    
        52   10.4           365.70483     -8186.0406      11696.176      3510.1357      643.87952      3509.3374      1435.8302      30.551095      5619.5982      0             -23.891377      0.15645202     0              0              0             -5.073017e-07   0             -7935.8043     -0.82400861     9129.7339      10099.92     
        53   10.6           369.19496     -8185.7141      11696.198      3510.4835      639.26938      3501.4044      1436.7111      31.232065      5608.6169      0             -23.891377      0.15103069     0              0              0             -5.2040078e-07  0             -7935.5866     -0.81655259     9119.1004      10098.545    
        54   10.8           372.68952     -8185.3924      11696.246      3510.8537      634.17657      3494.0595      1437.4302      31.898858      5597.5651      0             -23.891377      0.15643881     0              0              0             -5.2927203e-07  0             -7935.367      -0.80901371     9108.4188      10097.135    
        55   11             376.11934     -8185.084       11696.323      3511.2388      628.81485      3487.2811      1437.9814      32.550548      5586.6279      0             -23.891377      0.17306783     0              0              0             -5.3532561e-07  0             -7935.1463     -0.80139187     9097.8668      10095.682    
        56   11.2           379.43597     -8184.7886      11696.428      3511.6397      623.34616      3481.0446      1438.3594      33.186313      5575.9365      0             -23.891377      0.20040251     0              0              0             -5.4018566e-07  0             -7934.9251     -0.79369024     9087.5762      10094.19     
        57   11.4           382.61425     -8184.5074      11696.562      3512.0547      617.87335      3475.3223      1438.5601      33.805441      5565.5612      0             -23.891377      0.23701037     0              0              0             -5.4565154e-07  0             -7934.7028     -0.78591559     9077.6158      10092.661    
        58   11.6           385.65338     -8184.2431      11696.723      3512.4798      612.43667      3470.0844      1438.5803      34.407332      5555.5087      0             -23.891377      0.28060831     0              0              0             -5.5365389e-07  0             -7934.4784     -0.77807833     9067.9885      10091.096    
        59   11.8           388.57649     -8184.0001      11696.909      3512.9087      607.01404      3465.2993      1438.418       34.991504      5545.7228      0             -23.891377      0.32820823     0              0              0             -5.6619188e-07  0             -7934.2499     -0.77019251     9058.6316      10089.494    
        60   12             391.42875     -8183.7778      11697.117      3513.3395      601.52521      3460.9339      1438.0723      35.557589      5536.089       0             -23.891377      0.37633588     0              0              0             -5.8525039e-07  0             -7934.0148     -0.76227558     9049.4285      10087.858    
        61   12.2           394.2741      -8183.5815      11697.345      3513.7632      595.83941      3456.9547      1437.5434      36.105341      5526.4429      0             -23.891377      0.42130923     0              0              0             -6.1271289e-07  0             -7933.77       -0.75434789     9040.2061      10086.184    
        62   12.4           397.19084     -8183.4127      11697.587      3514.1746      589.78615      3453.3278      1436.8326      36.634631      5516.5812      0             -23.891377      0.45955416     0              0              0             -6.5027535e-07  0             -7933.5116     -0.7464321      9030.7558      10084.472    
        63   12.6           400.2662      -8183.2667      11697.841      3514.5739      583.16862      3450.0198      1435.9422      37.145452      5506.2761      0             -23.891377      0.48792897     0              0              0             -6.9936485e-07  0             -7933.2357     -0.7385524      9020.85        10082.725    
        64   12.8           403.59025     -8183.1463      11698.1        3514.9539      575.77875      3446.9983      1434.8757      37.637913      5495.2906      0             -23.891377      0.50402457     0              0              0             -7.6106686e-07  0             -7932.938      -0.73073358     9010.2446      10080.938    
        65   13             407.24962     -8183.0436      11698.361      3515.3175      567.41338      3444.2323      1433.6376      38.112241      5483.3955      0             -23.891377      0.50640707     0              0              0             -8.3606489e-07  0             -7932.6139     -0.72300012     8998.713       10079.114    
        66   13.2           411.32101     -8182.9515      11698.619      3515.6672      557.89046      3441.6931      1432.2333      38.568777      5470.3856      0             -23.891377      0.49477364     0              0              0             -9.2459643e-07  0             -7932.2591     -0.71537524     8986.0529      10077.255    
        67   13.4           415.86532     -8182.8736      11698.869      3515.9949      547.06451      3439.3544      1430.6693      39.007973      5456.0962      0             -23.891377      0.47000084     0              0              0             -1.0264284e-06  0             -7931.8694     -0.7078801      8972.0911      10075.349    
        68   13.6           420.92226     -8182.7914      11699.106      3516.3149      534.84038      3437.193       1428.9528      39.430388      5440.4165      0             -23.891377      0.4340771      0              0              0             -1.1408546e-06  0             -7931.4408     -0.70053305     8956.7314      10073.405    
        69   13.8           426.50612     -8182.7043      11699.328      3516.6238      521.18471      3435.189       1427.0919      39.836684      5423.3022      0             -23.891377      0.38992475     0              0              0             -1.2667166e-06  0             -7930.9701     -0.69334909     8939.9261      10071.413    
        70   14             432.60262     -8182.6079      11699.531      3516.923       506.13426      3433.3263      1425.0953      40.22762       5404.7835      0             -23.891377      0.34113083     0              0              0             -1.4024467e-06  0             -7930.4542     -0.68633948     8921.7065      10069.367    
        71   14.2           439.16729     -8182.483       11699.712      3517.2291      489.80077      3431.5927      1422.9725      40.604049      5384.97        0             -23.891377      0.29161678     0              0              0             -1.5461337e-06  0             -7929.8911     -0.67951165     8902.1991      10067.275    
        72   14.4           446.12527     -8182.3371      11699.87       3517.5325      472.37194      3429.9799      1420.7335      40.966907      5364.0522      0             -23.891377      0.24528387     0              0              0             -1.6956065e-06  0             -7929.2792     -0.67286914     8881.5847      10065.12     
        73   14.6           453.37268     -8182.1589      11700.002      3517.8435      454.10845      3428.4836      1418.3885      41.317211      5342.2977      0             -23.891377      0.20567237     0              0              0             -1.8485323e-06  0             -7928.6178     -0.66641186     8860.1412      10062.903    
        74   14.8           460.77952     -8181.9389      11700.11       3518.1709      435.33707      3427.1033      1415.9482      41.65605       5320.0447      0             -23.891377      0.17566873     0              0              0             -2.0025246e-06  0             -7927.9068     -0.66013636     8838.2156      10060.627    
        75   15             468.19391     -8181.6728      11700.192      3518.5193      416.44019      3425.8423      1413.4238      41.984579      5297.6908      0             -23.891377      0.15728722     0              0              0             -2.1552548e-06  0             -7927.147      -0.65403628     8816.2101      10058.292    
        76   15.2           475.44747     -8181.3639      11700.25       3518.8862      397.84212      3424.7069      1410.8262      42.30401       5275.6792      0             -23.891377      0.15154166     0              0              0             -2.3045641e-06  0             -7926.3399     -0.64810274     8794.5654      10055.89     
        77   15.4           482.36174     -8181.0148      11700.285      3519.2704      379.99298      3423.7065      1408.1666      42.615607      5254.4817      0             -23.891377      0.15841233     0              0              0             -2.4485687e-06  0             -7925.4873     -0.64232489     8773.7521      10053.42     
        78   15.6           488.75522     -8180.6098      11700.299      3519.6893      363.35063      3422.8528      1405.4564      42.920676      5234.5805      0             -23.891377      0.17690273     0              0              0             -2.5857516e-06  0             -7924.5919     -0.63669029     8754.2698      10050.899    
        79   15.8           494.4507      -8180.1683      11700.294      3520.1256      348.36184      3422.1596      1402.7065      43.220561      5216.4485      0             -23.891377      0.20517314     0              0              0             -2.7149917e-06  0             -7923.6566     -0.63118546     8736.5741      10048.313    
        80   16             499.28269     -8179.6865      11700.272      3520.5855      335.44333      3421.6415      1399.9281      43.516633      5200.5295      0             -23.891377      0.24073267     0              0              0             -2.8354995e-06  0             -7922.6847     -0.6257962      8721.1151      10045.673    
        81   16.2           503.10443     -8179.1715      11700.236      3521.0643      324.96367      3421.3139      1397.1318      43.810288      5187.2197      0             -23.891377      0.28066895     0              0              0             -2.9467318e-06  0             -7921.6796     -0.62050801     8708.284       10042.98     
        82   16.4           505.79421     -8178.6249      11700.188      3521.563       317.227        3421.1918      1394.3283      44.102931      5176.8501      0             -23.891377      0.32189482     0              0              0             -3.0483142e-06  0             -7920.645      -0.61530641     8698.4131      10040.245    
        83   16.6           507.26073     -8178.0565      11700.131      3522.0742      312.45924      3421.2895      1391.5279      44.395977      5169.6726      0             -23.891377      0.36139256     0              0              0             -3.1399728e-06  0             -7919.5845     -0.61017723     8691.7467      10037.469    
        84   16.8           507.44724     -8177.4663      11700.067      3522.6002      310.7975       3421.6195      1388.7403      44.69084       5165.8481      0             -23.891377      0.39643949     0              0              0             -3.2214811e-06  0             -7918.5018     -0.6051068      8688.4483      10034.666    
        85   17             506.33419     -8176.8586      11699.997      3523.1388      312.28328      3422.1922      1385.9752      44.988925      5165.4396      0             -23.891377      0.42480197     0              0              0             -3.292623e-06   0             -7917.4003     -0.60008221     8688.5784      10031.843    
        86   17.2           503.94038     -8176.2352      11699.925      3523.6903      316.85963      3423.0151      1383.2417      45.291618      5168.408       0             -23.891377      0.44488793     0              0              0             -3.3531719e-06  0             -7916.2834     -0.59509145     8692.0983      10029.012    
        87   17.4           500.3225      -8175.5894      11699.852      3524.2628      324.3726       3424.0923      1380.5485      45.600284      5174.6136      0             -23.891377      0.45585176     0              0              0             -3.4028862e-06  0             -7915.1544     -0.59012352     8698.8764      10026.192    
        88   17.6           495.57305     -8174.9302      11699.779      3524.8491      334.57681      3425.4239      1377.9037      45.91625       5183.8207      0             -23.891377      0.45764791     0              0              0             -3.4415204e-06  0             -7914.0165     -0.5851686      8708.6698      10023.386    
        89   17.8           489.81683     -8174.2532      11699.708      3525.4548      347.14484      3427.0061      1375.315       46.240806      5195.7067      0             -23.891377      0.45103193     0              0              0             -3.4688476e-06  0             -7912.8726     -0.58021812     8721.1615      10020.607    
        90   18             483.20611     -8173.5618      11699.64       3526.0779      361.68015      3428.8301      1372.7895      46.575189      5209.875       0             -23.891377      0.43751006     0              0              0             -3.4846938e-06  0             -7911.7257     -0.57526492     8735.9529      10017.86     
        91   18.2           475.9147      -8172.8592      11699.576      3526.7165      377.73271      3430.8828      1370.3337      46.920575      5225.8698      0             -23.891377      0.41924021     0              0              0             -3.4889784e-06  0             -7910.579      -0.57030329     8752.5863      10015.15     
        92   18.4           468.13131     -8172.1393      11699.517      3527.3782      394.81679      3433.1461      1367.9535      47.278074      5243.1945      0             -23.891377      0.39888917     0              0              0             -3.4817597e-06  0             -7909.4354     -0.56532912     8770.5726      10012.488    
        93   18.6           460.05231     -8171.4047      11699.466      3528.0617      412.42996      3435.5972      1365.6542      47.648721      5261.3301      0             -23.891377      0.37945256     0              0              0             -3.4632802e-06  0             -7908.2984     -0.56044707     8789.3918      10009.874    
        94   18.8           451.87448     -8170.6396      11699.424      3528.7846      430.07249      3438.2091      1363.4402      48.033463      5279.7553      0             -23.891377      0.36404651     0              0              0             -3.4340062e-06  0             -7907.1715     -0.55544343     8808.5399      10007.327    
        95   19             443.78788     -8169.8569      11699.393      3529.5364      447.26615      3440.9503      1361.3154      48.433158      5297.965       0             -23.891377      0.35568157     0              0              0             -3.3946623e-06  0             -7906.0585     -0.55042498     8827.5014      10004.836    
        96   19.2           435.96918     -8169.0547      11699.376      3530.3214      463.57168      3443.7856      1359.2829      48.848564      5315.4887      0             -23.891377      0.35703194     0              0              0             -3.3462592e-06  0             -7904.9637     -0.54539501     8845.8101      10002.402    
        97   19.4           428.57591     -8168.238       11699.375      3531.1375      478.6041       3446.6766      1357.345       49.280335      5331.9061      0             -23.891377      0.37021497     0              0              0             -3.2900969e-06  0             -7903.8917     -0.54035885     8863.0436      10000.022    
        98   19.6           421.74162     -8167.4074      11699.395      3531.9875      492.04515      3449.5823      1355.5035      49.729018      5346.86        0             -23.891377      0.39659715     0              0              0             -3.227711e-06   0             -7902.8475     -0.53532385     8878.8475      9997.6947    
        99   19.8           415.57236     -8166.5618      11699.438      3532.8765      503.65243      3452.4595      1353.7593      50.195047      5360.0662      0             -23.891377      0.43664364     0              0              0             -3.1607943e-06  0             -7901.8367     -0.53029933     8892.9427      9995.4233    
       100   20             410.14444     -8165.7119      11699.51       3533.7979      513.26482      3455.2638      1352.1124      50.678742      5371.3198      0             -23.891377      0.48982774     0              0              0             -3.0911162e-06  0             -7900.8651     -0.52529645     8905.1177      9993.1984    
Loop time of 32.2998 on 1 procs for 100 steps with 891 atoms

Performance: 0.053 ns/day, 448.608 hours/ns, 3.096 timesteps/s, 2.759 katom-step/s
99.6% CPU use with 1 MPI tasks x 1 OpenMP threads

MPI task timing breakdown:
Section |  min time  |  avg time  |  max time  |%varavg| %total
---------------------------------------------------------------
Pair    | 32.195     | 32.195     | 32.195     |   0.0 | 99.68
Bond    | 0.037627   | 0.037627   | 0.037627   |   0.0 |  0.12
Neigh   | 0          | 0          | 0          |   0.0 |  0.00
Comm    | 0.0025439  | 0.0025439  | 0.0025439  |   0.0 |  0.01
Output  | 0.0077194  | 0.0077194  | 0.0077194  |   0.0 |  0.02
Modify  | 0.055351   | 0.055351   | 0.055351   |   0.0 |  0.17
Other   |            | 0.001116   |            |       |  0.00

Nlocal:            891 ave         891 max         891 min
Histogram: 1 0 0 0 0 0 0 0 0 0
Nghost:           4157 ave        4157 max        4157 min
Histogram: 1 0 0 0 0 0 0 0 0 0
Neighs:              0 ave           0 max           0 min
Histogram: 1 0 0 0 0 0 0 0 0 0

Total # of neighbors = 0
Ave neighs/atom = 0
Ave special neighs/atom = 12.989899
Neighbor list builds = 0
Dangerous builds = 0

# write_data      final.data nocoeff
# write_restart   restart.inter
Total wall time: 0:00:32
