LAMMPS data file via write_data, version 10 Dec 2025, timestep = 0, units = metal

7800 atoms
1 atom types

0 36.150000000000006 xlo xhi
0 36.150000000000006 ylo yhi
0 90.375 zlo zhi

Masses

1 63.546

Atoms # apip

1 1 36.13989492843509 0.011222208470945341 90.3125777711784 -1 0 -1
2 1 1.8453968662071587 1.8638903437145289 90.30342681008683 0 0 -1
3 1 1.8508702685983993 36.0876643332962 1.7589497091777762 0 -1 0
4 1 0.099963822849553 1.8499106324372026 1.8117593720614535 0 0 0
5 1 3.6746994964222983 0.07679636956278997 90.33414324181102 0 0 -1
6 1 5.352347236944767 1.76057133068821 90.35109487674366 0 0 -1
7 1 5.3915975137525045 0.0829536383351561 1.8050194989683384 0 0 0
8 1 3.514381881563199 1.9025434326805097 1.7484330613268695 0 0 0
9 1 7.2572961291832465 0.03700318281355463 0.01681354741252659 0 0 0
10 1 8.953682718050763 1.8704022791325872 0.056925381390277946 0 0 0
11 1 8.970779163118127 36.088054526334965 1.8388441116927212 0 -1 0
12 1 7.282407837068452 1.8095776094642364 1.9062022654203896 0 0 0
13 1 10.752476898052794 36.055865573298924 90.32629043486592 0 -1 -1
14 1 12.636615164259549 1.8494257102373735 90.32677195953579 0 0 -1
15 1 12.66217797958414 0.09848287063698419 1.859666795793114 0 0 0
16 1 10.836385482551309 1.7679052398510209 1.7586461761074916 0 0 0
17 1 14.547238198036524 36.08947439983697 0.007238059856639282 0 -1 0
18 1 16.23131991197186 1.8585205109815675 90.34088806720399 0 0 -1
19 1 16.262106721425667 0.04828700115076592 1.785168340922859 0 0 0
20 1 14.366324148969383 1.773351728405241 1.7948993068820702 0 0 0
21 1 18.105954744634303 36.13559306867818 90.35594527417553 0 -1 -1
22 1 19.871713536035713 1.905640152237192 90.33541865048372 0 0 -1
23 1 19.88823364148784 0.0038724861491902184 1.7066947094400298 0 0 0
24 1 18.074163321834927 1.7138100795886155 1.7393276458585671 0 0 0
25 1 21.694212197479025 36.090403029966815 0.026844652211454077 0 -1 0
26 1 23.428174873113772 1.9047324231242075 0.08965544855344829 0 0 0
27 1 23.577398878711893 0.07593451073366893 1.8570619007737106 0 0 0
28 1 21.77755921649416 1.8788916173371728 1.8245325858611114 0 0 0
29 1 25.288836704057314 0.017965091273535547 90.27380903431201 0 0 -1
30 1 27.185828701498636 1.788266087534533 0.032313192894837445 0 0 0
31 1 27.166142039861224 0.09644394758637247 1.8038470841621084 0 0 0
32 1 25.28154390443204 1.7315817893219283 1.8294531336470383 0 0 0
33 1 28.945976912066694 36.08088110490776 90.29445018467503 0 -1 -1
34 1 30.670696342772963 1.815472985152543 90.36168145879104 0 0 -1
35 1 30.800402763269677 36.057422273433104 1.8074895900741452 0 -1 0
36 1 28.90446996240976 1.7393182208025635 1.8891770286821468 0 0 0
37 1 32.560884658489954 36.14989524053222 0.06126762491176261 0 -1 0
38 1 34.29062218477049 1.8061394376275965 0.008748207014691183 0 0 0
39 1 34.25712080694404 36.076622308402456 1.8131173200392152 0 -1 0
40 1 32.6042191128465 1.750449611075637 1.7174533482268517 0 0 0
41 1 0.01313866819923682 3.574556424573165 0.05834780117795236 0 0 0
42 1 1.7102238457320742 5.407615218970392 0.04732523537053971 0 0 0
43 1 1.8236895514087053 3.633430526106493 1.8361522718255188 0 0 0
44 1 36.06303992779545 5.501366458052735 1.7389404923181147 -1 0 0
45 1 3.59701358727222 3.5602812842032043 0.027463603249510575 0 0 0
46 1 5.4894036290090735 5.520032755497095 0.07634163966886776 0 0 0
47 1 5.384311347233929 3.715552960635225 1.8319893962232907 0 0 0
48 1 3.541887974016456 5.439479294574671 1.7381039164814651 0 0 0
49 1 7.150033335564367 3.6144308303032684 90.32364490702464 0 0 -1
50 1 8.949074964458251 5.374967649822705 90.3270305701917 0 0 -1
51 1 9.05655907075258 3.680722138600062 1.8868434512371959 0 0 0
52 1 7.301060748012849 5.344491851945525 1.725995648438109 0 0 0
53 1 10.89149391999738 3.6199133959669685 90.35892601683484 0 0 -1
54 1 12.610117131984232 5.479997258995975 90.28287194535221 0 0 -1
55 1 12.747889999025022 3.712353613539363 1.7071627560752458 0 0 0
56 1 10.747828889372167 5.35112367800506 1.8450962310439425 0 0 0
57 1 14.362947431691703 3.714004442438718 90.28586406753574 0 0 -1
58 1 16.22667131515024 5.486393730054346 90.29272102338965 0 0 -1
59 1 16.342857157355297 3.6781036704291235 1.807728902277187 0 0 0
60 1 14.481807094534258 5.517937837257487 1.8991107865788373 0 0 0
61 1 17.979284013154892 3.7070890942428587 0.08760693971908974 0 0 0
62 1 19.945693714258642 5.519015544961475 90.360044167504 0 0 -1
63 1 19.96322392862539 3.5891884069280553 1.8209752398233747 0 0 0
64 1 18.10298617995315 5.518106472522778 1.8992036903252285 0 0 0
65 1 21.590659188048747 3.5166535352750095 0.013567367080369673 0 0 0
66 1 23.513568174813322 5.425354087453761 90.36536783536413 0 0 -1
67 1 23.579429634059366 3.609479635743136 1.7442579348769496 0 0 0
68 1 21.695234892365754 5.3439359912129385 1.898324315848576 0 0 0
69 1 25.23606673913509 3.6178046434521605 90.34412250045916 0 0 -1
70 1 27.058612260398405 5.447820515989373 0.033032233387759076 0 0 0
71 1 27.176785473338118 3.638670393726477 1.8412073608930817 0 0 0
72 1 25.344625845083037 5.386478310623876 1.8890066554833236 0 0 0
73 1 28.971433785372664 3.643830758334571 90.2921953291334 0 0 -1
74 1 30.793932662785043 5.499663428176075 0.05509735529174904 0 0 0
75 1 30.66696979274825 3.5448067197903 1.8893595155680365 0 0 0
76 1 28.984554406674402 5.512452976627859 1.825258184423027 0 0 0
77 1 32.57540576085517 3.528422692761497 0.03391724247946276 0 0 0
78 1 34.41619876124297 5.347220210475727 0.022577465529422032 0 0 0
79 1 34.37571902221533 3.597586372966099 1.8649104412220747 0 0 0
80 1 32.46648346346942 5.343790530531495 1.8828466428385706 0 0 0
81 1 0.005550354545437887 7.189968845174717 90.27950085147162 0 0 -1
82 1 1.782466441290037 8.968798761651536 0.056047077332114364 0 0 0
83 1 1.7114804081577624 7.280399907511482 1.8697855454775065 0 0 0
84 1 0.08473418121628191 8.999483702050282 1.768220359082008 0 0 0
85 1 3.619568576417225 7.289303844296375 90.28015108917828 0 0 -1
86 1 5.438688656989452 9.040898021716467 0.02247098863149574 0 0 0
87 1 5.3867632325527275 7.241629513688186 1.7076965573257286 0 0 0
88 1 3.5620651376044963 9.085067718764948 1.8425892824742522 0 0 0
89 1 7.310632981892458 7.295166666536382 0.05576447695289947 0 0 0
90 1 9.09380422079353 9.137978876834932 90.36900296467404 0 0 -1
91 1 9.094295668728266 7.29020431596258 1.866318383069429 0 0 0
92 1 7.258521504582121 9.020507511704393 1.857589215693506 0 0 0
93 1 10.924901720906293 7.151263272048944 0.02209332660631897 0 0 0
94 1 12.684248124017998 8.996380370503042 0.03254704459669396 0 0 0
95 1 12.644553273141529 7.2797616896947765 1.872578700101161 0 0 0
96 1 10.92240683285625 9.134699815000195 1.7539907082455564 0 0 0
97 1 14.471535408678669 7.168093662362059 0.08178331911703726 0 0 0
98 1 16.310648468743494 9.093734171872333 90.31036665828125 0 0 -1
99 1 16.291256448962717 7.292957716346503 1.7839586356776576 0 0 0
100 1 14.456150033928663 9.111920239047205 1.7116976663462715 0 0 0
101 1 18.086172469220497 7.1413701888293355 90.32728365464128 0 0 -1
102 1 19.856210456635807 9.115664678022595 0.0805835257302241 0 0 0
103 1 19.922512413499092 7.212953679222657 1.7625866951994908 0 0 0
104 1 18.128929495538042 9.106651507835414 1.8288521897723211 0 0 0
105 1 21.728288935377034 7.1953768818081345 90.27681254931161 0 0 -1
106 1 23.441015516867964 8.943951999829093 0.09024112753464893 0 0 0
107 1 23.419371138623102 7.144066838462468 1.7358140386945635 0 0 0
108 1 21.709159826214194 8.9746591819309 1.7713507125922063 0 0 0
109 1 25.395720650507798 7.1938930845731095 0.06619242024645787 0 0 0
110 1 27.173501681677113 9.136603947240527 90.33872127151766 0 0 -1
111 1 27.125641812712626 7.242406261097001 1.806330257280716 0 0 0
112 1 25.241517618997495 8.947922490921583 1.824584919002813 0 0 0
113 1 28.895300216251446 7.305174538022203 0.03042053916061323 0 0 0
114 1 30.705163905214224 8.958514935430902 0.0995397871468774 0 0 0
115 1 30.64886823801182 7.194296264602056 1.7669791667534502 0 0 0
116 1 28.976060136060603 9.084446770555065 1.7307527189524066 0 0 0
117 1 32.44403288070965 7.172506086969137 90.32092369027382 0 0 -1
118 1 34.39330498723866 9.02500052011138 0.053961511938861347 0 0 0
119 1 34.35626090854706 7.323109950328791 1.845235175982935 0 0 0
120 1 32.54527134615916 8.986694896905393 1.8180522889215744 0 0 0
121 1 0.07717859785843575 10.750174206729698 0.07301250600451255 0 0 0
122 1 1.8638290425303714 12.562837807951475 0.010898240447118061 0 0 0
123 1 1.8265886449401214 10.800455508620365 1.7713533824638434 0 0 0
124 1 36.09640012331502 12.657372555471646 1.712339811953092 -1 0 0
125 1 3.5144994117221606 10.890972814353237 90.32661083482813 0 0 -1
126 1 5.382237583970445 12.718993791269359 0.09234986411808518 0 0 0
127 1 5.393340020908127 10.860471402884057 1.9024082723378244 0 0 0
128 1 3.536304426552544 12.556517068600542 1.866731969300626 0 0 0
129 1 7.192720996595669 10.848589783394416 0.006369509945711818 0 0 0
130 1 9.057828515059105 12.59513259836814 0.04780077333261294 0 0 0
131 1 9.118781562547918 10.879101742845625 1.847852006427726 0 0 0
132 1 7.197870844613133 12.565265412917261 1.7262749004012323 0 0 0
133 1 10.885983682483884 10.754431506628753 90.33669190945818 0 0 -1
134 1 12.733820120615018 12.727327176617406 0.0630774087413854 0 0 0
135 1 12.684491332336949 10.84268258709972 1.7272213849794966 0 0 0
136 1 10.857528392405767 12.67959116369763 1.8411282660636719 0 0 0
137 1 14.45689743141463 10.929649785670746 90.33562776821267 0 0 -1
138 1 16.317848606326734 12.662326533402654 90.3385068984157 0 0 -1
139 1 16.324893005608477 10.822645261644436 1.820052458015202 0 0 0
140 1 14.423733446196428 12.667370223338162 1.717943644483678 0 0 0
141 1 18.01611598175346 10.910465330357331 0.014407315654376213 0 0 0
142 1 19.980964296448793 12.594930414839373 0.09118220534475623 0 0 0
143 1 19.852399484104776 10.843189348947579 1.7418877619401962 0 0 0
144 1 18.0955890114615 12.722055633377124 1.7380301693138809 0 0 0
145 1 21.751565355097775 10.90308312830522 0.03745742581082388 0 0 0
146 1 23.450791506580167 12.685171092854818 0.08577761092455947 0 0 0
147 1 23.512760028933513 10.828826285505894 1.8528004975566457 0 0 0
148 1 21.670000677040584 12.574279021075759 1.7928672202752471 0 0 0
149 1 25.23140498403748 10.841966717892433 0.03450761810442788 0 0 0
150 1 27.043262269601815 12.599085197681898 0.07881743967328102 0 0 0
151 1 27.165145753909584 10.79694595839428 1.898822732674304 0 0 0
152 1 25.243498107662422 12.648835482352839 1.7597119041741789 0 0 0
153 1 28.97653858588148 10.835652910007907 90.37189850287007 0 0 -1
154 1 30.784879896163552 12.612254820771838 90.32631271229674 0 0 -1
155 1 30.782794353489 10.775159089584696 1.738438649964686 0 0 0
156 1 28.82755124457932 12.593267644575716 1.8892223840716214 0 0 0
157 1 32.569614164195414 10.792697632288057 90.32358586536147 0 0 -1
158 1 34.438684514438066 12.742234160558597 90.35903650834415 0 0 -1
159 1 34.37468047787629 10.782611666821182 1.8859842635994706 0 0 0
160 1 32.54687813028359 12.682395676258018 1.8080508685100316 0 0 0
161 1 0.04409550139864698 14.440252007059657 0.09708265163985204 0 0 0
162 1 1.8107360985548497 16.200248411358416 90.30006970083967 0 0 -1
163 1 1.7073698360026675 14.456053696830288 1.8823026266565652 0 0 0
164 1 0.08647764199175763 16.17802895547034 1.7919745899547332 0 0 0
165 1 3.5956410028888386 14.414415552705245 0.09759431705076914 0 0 0
166 1 5.460270774679925 16.229070045494808 0.09379463118950587 0 0 0
167 1 5.362804807593285 14.455541220333448 1.771590144233401 0 0 0
168 1 3.553065630878045 16.283038167303186 1.809877864631246 0 0 0
169 1 7.156825180845208 14.433814465396626 0.004279921079846071 0 0 0
170 1 9.06809032657516 16.201518748670164 0.01942889944488598 0 0 0
171 1 9.138473616341873 14.469049857826416 1.8760204885476923 0 0 0
172 1 7.141145325908999 16.286872552540228 1.8784705435498574 0 0 0
173 1 10.892259362731147 14.373549422392012 90.31202214253477 0 0 -1
174 1 12.559156408093775 16.35175083207443 90.31093467493318 0 0 -1
175 1 12.634142383579995 14.442100828971435 1.8019725229041896 0 0 0
176 1 10.894577967891916 16.281366359426944 1.8509628885966927 0 0 0
177 1 14.392369030253398 14.486891468856498 90.2913970711678 0 0 -1
178 1 16.329065218125688 16.32328103841497 0.012272640346983752 0 0 0
179 1 16.35677463994098 14.413593487991418 1.8545726717542546 0 0 0
180 1 14.520601261923268 16.3172691443512 1.7954291105837699 0 0 0
181 1 18.09345330947619 14.46669236626146 90.29695975635919 0 0 -1
182 1 19.906403667091265 16.173032802862338 0.026737707270569035 0 0 0
183 1 19.813531971980282 14.485793072616781 1.8876314702328256 0 0 0
184 1 17.974679435184367 16.302527143620463 1.8131828290851149 0 0 0
185 1 21.757396456091545 14.540437530546551 0.019255895872915114 0 0 0
186 1 23.53091684441328 16.335844053980452 0.013955249410371871 0 0 0
187 1 23.396322336158885 14.463003822361951 1.8851824372894237 0 0 0
188 1 21.73221115149123 16.36056311313322 1.8678024300216336 0 0 0
189 1 25.303349922278958 14.461423742421458 0.04091887743492559 0 0 0
190 1 27.119441914889237 16.334823543388467 0.06963372990342497 0 0 0
191 1 27.084637127920406 14.412428958271448 1.7165616682267943 0 0 0
192 1 25.3956069600922 16.344998269596697 1.821957111654448 0 0 0
193 1 28.97547359904778 14.36613919602029 0.09638751301203273 0 0 0
194 1 30.77928213037469 16.28020520734629 90.33721986908006 0 0 -1
195 1 30.735659736838333 14.548817041834555 1.7629621133522515 0 0 0
196 1 28.824927427992407 16.241702268352576 1.8515042017245593 0 0 0
197 1 32.529580092845045 14.465620446547327 90.29836512090654 0 0 -1
198 1 34.293687746617856 16.16683740626417 90.32986708190177 0 0 -1
199 1 34.251352404853044 14.405848365146289 1.851213013676169 0 0 0
200 1 32.51920425503483 16.187254370271667 1.7744811558459892 0 0 0
201 1 0.004956648132585301 17.976105164360987 90.28189741505538 0 0 -1
202 1 1.7414030809733845 19.982301919672853 90.32802394164501 0 0 -1
203 1 1.8250571313617645 18.000186797175132 1.7768401224297101 0 0 0
204 1 0.04422198583686816 19.964175960243296 1.7897238090735135 0 0 0
205 1 3.692153150461751 18.159799810643023 0.052817477221450526 0 0 0
206 1 5.508403565573974 19.86164660177058 90.315575958124 0 0 -1
207 1 5.448433552435019 18.086895775361732 1.729076504590752 0 0 0
208 1 3.702910129463603 19.980925894773083 1.7118334512175777 0 0 0
209 1 7.128933158456252 18.11863417422005 90.29444611633062 0 0 -1
210 1 8.960449841047996 19.909158493662886 0.04958299211861706 0 0 0
211 1 9.032853711671837 18.126672068541076 1.7923559698341396 0 0 0
212 1 7.310551532142373 19.79338071685602 1.8332681991265474 0 0 0
213 1 10.888847681843167 18.141388738108155 90.32124138369393 0 0 -1
214 1 12.566879860597048 19.808337054583884 90.34145639135967 0 0 -1
215 1 12.562699183713821 17.982880678194828 1.8191784204537695 0 0 0
216 1 10.781593489279587 19.853434321996065 1.788369787848913 0 0 0
217 1 14.427030259444141 18.03085047767695 90.29657831643077 0 0 -1
218 1 16.24056359496592 19.818180592180482 0.013312777351836103 0 0 0
219 1 16.307760840709136 17.98202979843746 1.8916823383001995 0 0 0
220 1 14.448397984330551 19.837142643566626 1.8754504242903043 0 0 0
221 1 18.051129522292147 18.119961164054846 90.3287642697498 0 0 -1
222 1 19.860353371360635 19.95127245817834 90.30130460338731 0 0 -1
223 1 19.95213751591376 18.16708996254975 1.7072605735656903 0 0 0
224 1 18.14651019104811 19.868000945568998 1.8596521781469195 0 0 0
225 1 21.631912875088684 18.17281161549192 90.2795815726207 0 0 -1
226 1 23.472471772737688 19.90340440227995 90.27944911910289 0 0 -1
227 1 23.46377052155544 18.01565578221431 1.8311116758754997 0 0 0
228 1 21.74116617019241 19.867202423840205 1.799937482300558 0 0 0
229 1 25.32008084559192 18.0838918633976 0.04482812343299768 0 0 0
230 1 27.157454746163065 19.93083876264846 0.03786383264953448 0 0 0
231 1 27.04071423788976 18.114096213138495 1.777314218649787 0 0 0
232 1 25.401966969802803 19.964361475692357 1.8710819614076253 0 0 0
233 1 28.92140688769018 18.035081408799286 90.34939768953257 0 0 -1
234 1 30.70228426445315 19.788552664068394 0.05912499749322655 0 0 0
235 1 30.629552072958834 18.10627021906889 1.8318318907650337 0 0 0
236 1 28.828852814543822 19.835234038004536 1.783036742255556 0 0 0
237 1 32.59786626857665 18.134015967710837 90.30036931601803 0 0 -1
238 1 34.27020876902825 19.92866105774331 0.0788174918037455 0 0 0
239 1 34.37004891715849 18.109370682780703 1.7118054952426096 0 0 0
240 1 32.618011846759316 19.846128483815757 1.8802274914097543 0 0 0
241 1 36.07473677797098 21.788587358187367 90.36132905506 -1 0 -1
242 1 1.8978412267934353 23.562498717262756 0.06720103510008243 0 0 0
243 1 1.7715371610163233 21.74840520134424 1.79215899265876 0 0 0
244 1 36.13826015732136 23.564964100035507 1.810189296739525 -1 0 0
245 1 3.6508107070168068 21.706432831465964 0.05843844841995205 0 0 0
246 1 5.424664934968122 23.444362009222846 0.07506900833387348 0 0 0
247 1 5.405176379842375 21.640636010790754 1.746053360204405 0 0 0
248 1 3.673680766938804 23.457469940480085 1.7304096487426803 0 0 0
249 1 7.314843754927751 21.67162907070371 90.33579131722261 0 0 -1
250 1 8.982275965699907 23.53455551831197 0.08665626924363723 0 0 0
251 1 8.984845700559248 21.594429299251125 1.7096925136556536 0 0 0
252 1 7.311918052046475 23.499760745105746 1.7451229922352933 0 0 0
253 1 10.776186798799936 21.686247430510385 0.09184458803559867 0 0 0
254 1 12.689850378682916 23.47887452377306 90.30886105382655 0 0 -1
255 1 12.652478373257312 21.731399335645577 1.8198541952064142 0 0 0
256 1 10.79463555609879 23.42393135234286 1.8427588263933357 0 0 0
257 1 14.36998992741021 21.724829983375713 90.30605059556515 0 0 -1
258 1 16.29492462729028 23.467330867687267 0.0595932198448727 0 0 0
259 1 16.289385004408988 21.677789101825084 1.8530943741418302 0 0 0
260 1 14.361100281442722 23.52477020780469 1.8137225733970863 0 0 0
261 1 18.174516384621867 21.70259633970567 90.32944143317128 0 0 -1
262 1 19.80029122757102 23.467661786125465 90.32801941063094 0 0 -1
263 1 19.96444585964287 21.75474301771151 1.8283986773557024 0 0 0
264 1 18.15364242884276 23.51004156020288 1.8534623297196173 0 0 0
265 1 21.64259954677946 21.63198272236962 0.05709486620303004 0 0 0
266 1 23.516092156281704 23.40851062653914 90.35732024326842 0 0 -1
267 1 23.5823702904654 21.71273185192678 1.8574553333484827 0 0 0
268 1 21.623706821558144 23.53780992771604 1.7297751234219854 0 0 0
269 1 25.348155089972362 21.655077165479707 90.30048021740664 0 0 -1
270 1 27.139742130129125 23.436701080188726 0.06967473188063815 0 0 0
271 1 27.11309695843943 21.601080491542547 1.7494013555757895 0 0 0
272 1 25.394590226272236 23.49171295749722 1.715876655729598 0 0 0
273 1 29.016635985188138 21.67488305703088 90.36673951797532 0 0 -1
274 1 30.784870649934838 23.504293454773585 0.0014343795814618474 0 0 0
275 1 30.666169087761666 21.72583801027688 1.8779387235398306 0 0 0
276 1 28.880846541766854 23.57776747550382 1.8028007926515868 0 0 0
277 1 32.54049070984686 21.65972039606861 0.02485672510428201 0 0 0
278 1 34.36595572735531 23.567229660704694 0.021247463722707458 0 0 0
279 1 34.400986752432935 21.628208140296465 1.7889139626847552 0 0 0
280 1 32.48750993130588 23.552835457841773 1.8211799466363061 0 0 0
281 1 0.03965167898045465 25.298288624501353 90.33599199424694 0 0 -1
282 1 1.875241085218974 27.1143592752954 0.07307988976749587 0 0 0
283 1 1.7672419279558593 25.242063154127376 1.7769314188044014 0 0 0
284 1 36.10607466327832 27.15804571869599 1.868754123498534 -1 0 0
285 1 3.687736279682236 25.24849261933915 90.30149323308957 0 0 -1
286 1 5.3983246763448625 27.09491532810442 0.016819450975525868 0 0 0
287 1 5.371379463006249 25.27749474601766 1.8996563187863942 0 0 0
288 1 3.5758914782272426 27.138254565266116 1.8477584276248136 0 0 0
289 1 7.212042267040509 25.327422149833478 90.28079225128214 0 0 -1
290 1 8.980522355132422 27.03042271059492 90.32815696878646 0 0 -1
291 1 9.098398402177189 25.287805391995377 1.9020432663262279 0 0 0
292 1 7.214406547820748 27.193149223313068 1.7407562226971596 0 0 0
293 1 10.783414954481067 25.32085996328717 90.31992296748231 0 0 -1
294 1 12.551423308532248 27.193026501506598 0.09751082139205691 0 0 0
295 1 12.725133661852709 25.345754758477813 1.7157657366185104 0 0 0
296 1 10.808806622851225 27.142610260521348 1.7706485822604265 0 0 0
297 1 14.377124588564442 25.205160002557903 0.01432299071592417 0 0 0
298 1 16.181415145880944 27.123036820973773 90.33235010617047 0 0 -1
299 1 16.298478369632903 25.282778420196138 1.8312082364844198 0 0 0
300 1 14.496463922381645 27.17576346830806 1.861731853551833 0 0 0
301 1 18.036010303635 25.303453193388986 90.29014128871944 0 0 -1
302 1 19.910195476350427 27.180811021648317 0.06610084323452825 0 0 0
303 1 19.925928647931297 25.211645781303304 1.7131463646014717 0 0 0
304 1 18.118543003976573 27.11916783421163 1.7220295948453572 0 0 0
305 1 21.78326665177126 25.34469631953211 90.30880237622821 0 0 -1
306 1 23.436305362640486 27.211869898582265 90.35488547210772 0 0 -1
307 1 23.433230689085516 25.350531460212668 1.8315517943449469 0 0 0
308 1 21.590077422434586 27.155978858052762 1.748267292765783 0 0 0
309 1 25.261054927419757 25.22128514385541 90.33741277791103 0 0 -1
310 1 27.155639880225902 27.024386956709787 90.30768142135483 0 0 -1
311 1 27.185621232525232 25.240315051572384 1.7503717770870273 0 0 0
312 1 25.343297085546237 27.012416775573797 1.7827070688210556 0 0 0
313 1 28.847999432661133 25.377784735655993 90.32313217025255 0 0 -1
314 1 30.72276231650379 27.04517347914188 0.08276393755451959 0 0 0
315 1 30.819774992893255 25.27796555688725 1.7149746040295506 0 0 0
316 1 28.983091554008272 27.11152821701637 1.8723833941172359 0 0 0
317 1 32.61244861565921 25.294683384329947 0.09972043344086988 0 0 0
318 1 34.350414566698234 27.12954249715389 90.35564966540719 0 0 -1
319 1 34.37015812906757 25.35293523863386 1.7438557193087303 0 0 0
320 1 32.46756244775705 27.15111945260862 1.8619999930533209 0 0 0
321 1 0.015613629119989293 28.97602461965999 0.05734262542668853 0 0 0
322 1 1.9055554123289304 30.680775012331523 90.33289225583674 0 0 -1
323 1 1.7119476173118817 28.927624160795347 1.8022504873485354 0 0 0
324 1 36.11181045404017 30.813041053057706 1.7670987408414012 -1 0 0
325 1 3.566858045692089 28.950853946940413 90.28600622750093 0 0 -1
326 1 5.507879018847831 30.79794977548111 90.35281651097444 0 0 -1
327 1 5.3937785295548935 29.017646229095213 1.7665924032016622 0 0 0
328 1 3.6906126347157513 30.630731667628893 1.8250978387500056 0 0 0
329 1 7.276471040850921 28.945263581415066 0.08833284295670354 0 0 0
330 1 8.937664224371382 30.81277900980397 0.009117775337480838 0 0 0
331 1 9.048100918066513 28.9424299438564 1.8442863944591055 0 0 0
332 1 7.207521065856154 30.67709384437426 1.8426423981385318 0 0 0
333 1 10.87781034124402 28.9168452882239 0.018039179033105805 0 0 0
334 1 12.674996568758187 30.66941111886707 0.06829479879859593 0 0 0
335 1 12.687181959063198 28.99492597515983 1.7091245112382643 0 0 0
336 1 10.901379389152583 30.674253487453246 1.880603626662774 0 0 0
337 1 14.39607289362787 28.846203203600695 0.04712291684932211 0 0 0
338 1 16.31176249045363 30.68017705412782 0.030008726213625034 0 0 0
339 1 16.30768865792683 28.828493776197785 1.7990765561636894 0 0 0
340 1 14.46629936882995 30.724871924976313 1.7693630768688784 0 0 0
341 1 18.000091792090256 28.91210966086444 90.36027014863694 0 0 -1
342 1 19.815393495531584 30.661719399299326 90.32528402372635 0 0 -1
343 1 19.820034243277494 28.911866764856935 1.759216950489272 0 0 0
344 1 18.16046418447251 30.81224842942434 1.8065133348528453 0 0 0
345 1 21.66817334683191 28.900720203864548 0.07090635143449826 0 0 0
346 1 23.470034149672948 30.672153553188295 0.0040684356096985005 0 0 0
347 1 23.46604548918108 28.83487666637461 1.783111757993955 0 0 0
348 1 21.680386022203177 30.692495168783953 1.7719417518672076 0 0 0
349 1 25.307450051467097 29.002695007505807 90.27695115007641 0 0 -1
350 1 27.05840580848754 30.72446325003819 90.35122339181902 0 0 -1
351 1 27.068565803550335 29.019080270488534 1.7781661007638119 0 0 0
352 1 25.31260700299093 30.636319268542792 1.8037463986477007 0 0 0
353 1 28.82676516883395 29.010232592184476 0.06113684447077888 0 0 0
354 1 30.770065873661057 30.709178621322952 90.35882857481572 0 0 -1
355 1 30.755068076753894 28.871506002632216 1.7923262396322779 0 0 0
356 1 28.94869157989258 30.73480325451719 1.8746586703778518 0 0 0
357 1 32.54239852581623 28.968863393367812 90.32297233278086 0 0 -1
358 1 34.34728960204518 30.655221573326134 0.05892289230155894 0 0 0
359 1 34.32144033528579 28.835335148342214 1.7960981875615467 0 0 0
360 1 32.511392100707994 30.731936599143737 1.8755018087141133 0 0 0
361 1 36.147643577580915 32.60884840235403 0.010458364059104748 -1 0 0
362 1 1.9083165870336614 34.34407827474641 0.006423662845978351 0 0 0
363 1 1.8305122801718825 32.43955284882904 1.7617902696244188 0 0 0
364 1 36.05776507120695 34.435571775085954 1.8109438695644327 -1 0 0
365 1 3.644869808706758 32.5056749344737 0.0750236994187551 0 0 0
366 1 5.493522059383915 34.42401206545661 0.061804129216384195 0 0 0
367 1 5.465244976780175 32.49026474439711 1.8042190821604707 0 0 0
368 1 3.707689478445663 34.39876423625592 1.8432787533045183 0 0 0
369 1 7.2031313071602545 32.5965194423931 0.09618830082547306 0 0 0
370 1 9.137403723305598 34.38701759715046 90.36401530772919 0 0 -1
371 1 8.9516501714138 32.44681095171806 1.8798455252747264 0 0 0
372 1 7.325225817379377 34.31217269518531 1.8404079794358315 0 0 0
373 1 10.832010394574754 32.44902161787691 90.35305165717092 0 0 -1
374 1 12.56477594688286 34.33485926020865 90.30404632682999 0 0 -1
375 1 12.657938721727756 32.44071607839826 1.877949639451704 0 0 0
376 1 10.82432276531597 34.409696665473646 1.769096615534712 0 0 0
377 1 14.384399027236803 32.625330768932066 0.09167344117543355 0 0 0
378 1 16.172730645263314 34.35187494048064 0.06630465817345524 0 0 0
379 1 16.201660954826913 32.51520777591597 1.7685098196606663 0 0 0
380 1 14.441027377300378 34.312630287447085 1.838441123123039 0 0 0
381 1 18.01005892696461 32.62686549414296 90.34848006072183 0 0 -1
382 1 19.901097988012125 34.35152451978116 0.04754396188475377 0 0 0
383 1 19.93309612874799 32.45369586750621 1.7989451768351092 0 0 0
384 1 18.128396393853883 34.35917150217206 1.8284770057824427 0 0 0
385 1 21.770899061439316 32.61848561058877 0.031017165350819553 0 0 0
386 1 23.40039423128007 34.35712512408795 0.04230054618805672 0 0 0
387 1 23.570413974053327 32.63084191425094 1.8074728154710649 0 0 0
388 1 21.78202279032521 34.32793699581788 1.797048711072453 0 0 0
389 1 25.28600463239222 32.527736616049836 90.37062594958937 0 0 -1
390 1 27.17094963544795 34.26420297366322 90.29687835760835 0 0 -1
391 1 27.114971537419823 32.57392941497717 1.8080975212222048 0 0 0
392 1 25.33506297913274 34.32075028395028 1.866662352411832 0 0 0
393 1 29.014102775496323 32.45662776665409 0.07495415521095233 0 0 0
394 1 30.808693134668534 34.307474374007654 0.01982394665003006 0 0 0
395 1 30.7170285470465 32.46165021045586 1.8771871315782458 0 0 0
396 1 28.840781107673237 34.35845666407331 1.758153080077075 0 0 0
397 1 32.44297407307995 32.496846254754495 0.0799236586878 0 0 0
398 1 34.307509637108886 34.347670889070145 0.06037260186891659 0 0 0
399 1 34.279283436478 32.459336885837764 1.865620275267577 0 0 0
400 1 32.632218527480234 34.40105136027225 1.8193720956874138 0 0 0
401 1 0.088068946384829 36.083501889820646 3.652502215495204 0 -1 0
402 1 1.7322557215973065 1.8195928859269959 3.6103737750190654 0 0 0
403 1 1.8806718439475782 36.12618122694595 5.324261280555214 0 -1 0
404 1 0.09298064358681471 1.8988167635947173 5.485705736411021 0 0 0
405 1 3.537893810319786 0.09715004464114554 3.5347602837328522 0 0 0
406 1 5.420226376595622 1.8558714426050482 3.5947958630444 0 0 0
407 1 5.476730549347536 0.06796288403692789 5.508212008647142 0 0 0
408 1 3.516208436319432 1.8305692206851065 5.474292054582244 0 0 0
409 1 7.190209020876955 0.09477387896341917 3.6816637381861566 0 0 0
410 1 9.013470363082101 1.8091923208369467 3.513796306560122 0 0 0
411 1 9.005837376542557 0.06104755073548646 5.482765211320969 0 0 0
412 1 7.15723077433555 1.715164257581683 5.440717175346109 0 0 0
413 1 10.884544121388776 0.007528181163011214 3.616140806729291 0 0 0
414 1 12.606717309221494 1.8122560856444465 3.5867314262098593 0 0 0
415 1 12.746589894840973 36.05758259223961 5.4852477710346355 0 -1 0
416 1 10.907939950698987 1.8902513978682327 5.462443971383983 0 0 0
417 1 14.52943936547299 0.0008155045237929994 3.5552645313890303 0 0 0
418 1 16.167782782245215 1.860981195319454 3.639849734060201 0 0 0
419 1 16.173953535085413 36.063604180495865 5.470081593952664 0 -1 0
420 1 14.51023001093405 1.8484937685504061 5.501448026675362 0 0 0
421 1 18.166742320413444 36.077699188712074 3.702584683781492 0 -1 0
422 1 19.969873423235917 1.792864326044649 3.597827832416374 0 0 0
423 1 19.923643139110954 36.10769903780518 5.439508391669481 0 -1 0
424 1 18.068178419002596 1.7382281765608436 5.403403458095791 0 0 0
425 1 21.750350080377036 0.07940089684088755 3.621393204797252 0 0 0
426 1 23.585539164146773 1.8477718147846554 3.7064710857009757 0 0 0
427 1 23.46797867628395 0.015552304274445535 5.460037940606213 0 0 0
428 1 21.599280587991377 1.8644223710209236 5.385349748661961 0 0 0
429 1 25.308046263912985 36.13123758552702 3.676619952473883 0 -1 0
430 1 27.039391320170104 1.8807180989410721 3.558828902596035 0 0 0
431 1 27.05677045592588 0.04343274625307542 5.398026275438679 0 0 0
432 1 25.32982121096611 1.7487527074241047 5.356633676925057 0 0 0
433 1 28.933014988436568 36.05527065336804 3.6894711565592755 0 -1 0
434 1 30.73147914932162 1.8798626483883443 3.5545114629003836 0 0 0
435 1 30.691186489656975 0.03543166471267663 5.344008825955991 0 0 0
436 1 28.95144683255769 1.7635747970452789 5.470293939999684 0 0 0
437 1 32.55187786886423 0.04790200107926597 3.600052139222991 0 0 0