LAMMPS (10 Dec 2025 - Development - b6d2e3d6a9)
OMP_NUM_THREADS environment is not set. Defaulting to 1 thread.
  using 1 OpenMP thread(s) per MPI task
Reading data file ...
  orthogonal box = (0 0 0) to (36.15 36.15 90.375)
  1 by 1 by 1 MPI processor grid
  reading atoms ...
  7800 atoms
  reading velocities ...
  7800 velocities
  read_data CPU = 0.026 seconds
ACE version: 2023.11.25
Recursive evaluator is used
Loading ../../../potentials/Cu-PBE-core-rep.ace
Total number of basis functions
	Cu: 16 (r=1) 726 (r>1)
Mapping LAMMPS atom type #1(Cu) -> ACE species type #0
Neighbor list info ...
  update: every = 1 steps, delay = 0 steps, check = yes
  max neighbors/atom: 2000, page size: 100000
  master list distance cutoff = 10
  ghost atom cutoff = 10
  binsize = 5, bins = 8 8 19
  3 neighbor lists, perpetual/occasional/extra = 3 0 0
  (1) pair pace, perpetual
      attributes: full, newton on
      pair build: full/bin/atomonly
      stencil: full/bin/3d
      bin: standard
  (2) pair zero, perpetual, half/full from (1)
      attributes: half, newton on, cut 10
      pair build: halffull/newton
      stencil: none
      bin: none
  (3) fix lambda/la/csp/apip, perpetual
      attributes: full, newton on, cut 10
      pair build: full/bin/atomonly
      stencil: full/bin/3d
      bin: standard
Setting up Verlet run ...
  Unit style    : metal
  Current step  : 0
  Time step     : 0.001
Per MPI rank memory allocation (min/avg/max) = 38.4 | 38.4 | 38.4 Mbytes
   Step          Temp          TotEng     c_lambda_types[1] c_lambda_types[2] c_lambda_types[3]     Fnorm           Fmax     
         0   300           -28016.414      6200           400            1200           74.421976      1.5932129    
         1   300.25157     -28016.414      6200           400            1200           74.387614      1.6207403    
         2   300.6794      -28016.415      6200           400            1200           74.307145      1.6437534    
         3   301.27995     -28016.415      6200           400            1200           74.181116      1.6621055    
         4   302.04772     -28016.416      6200           400            1200           74.010438      1.6756759    
         5   302.97532     -28016.416      6200           400            1200           73.796367      1.6843725    
         6   304.05355     -28016.417      6200           400            1200           73.540515      1.6881322    
         7   305.27143     -28016.418      6200           400            1200           73.244847      1.6869228    
         8   306.61639     -28016.418      6200           400            1200           72.911671      1.6807432    
         9   308.0743      -28016.419      6200           400            1200           72.54362       1.6815297    
        10   309.62969     -28016.42       6200           400            1200           72.14365       1.6887256    
        11   311.26583     -28016.422      6200           400            1200           71.715025      1.6908727    
        12   312.96494     -28016.423      6200           400            1200           71.261301      1.6879919    
        13   314.70834     -28016.424      6200           400            1200           70.786309      1.6801422    
        14   316.47661     -28016.425      6200           400            1200           70.294131      1.6674191    
        15   318.24982     -28016.426      6200           400            1200           69.789075      1.6499522    
        16   320.00771     -28016.428      6200           400            1200           69.275648      1.6279021    
        17   321.72983     -28016.429      6200           400            1200           68.758521      1.601457     
        18   323.39583     -28016.43       6200           400            1200           68.24249       1.5708486    
        19   324.98557     -28016.431      6200           400            1200           67.732441      1.56645      
        20   326.47935     -28016.433      6200           400            1200           67.233303      1.5572714    
        21   327.85812     -28016.434      6200           400            1200           66.749994      1.5433791    
        22   329.10359     -28016.435      6200           400            1200           66.287367      1.524871     
        23   330.19847     -28016.436      6200           400            1200           65.850157      1.5018767    
        24   331.1266      -28016.437      6200           400            1200           65.442924      1.4745548    
        25   331.87312     -28016.438      6200           400            1200           65.06999       1.4493804    
        26   332.42459     -28016.438      6200           400            1200           64.735378      1.4834339    
        27   332.76911     -28016.439      6200           400            1200           64.442756      1.5148475    
        28   332.89648     -28016.439      6200           400            1200           64.195372      1.5433818    
        29   332.79822     -28016.44       6200           400            1200           63.996014      1.5688056    
        30   332.46774     -28016.44       6200           400            1200           63.846953      1.5908994    
        31   331.90031     -28016.44       6200           400            1200           63.749914      1.6094574    
        32   331.09319     -28016.44       6200           400            1200           63.706044      1.6242908    
        33   330.04558     -28016.44       6200           400            1200           63.715885      1.6352299    
        34   328.75872     -28016.44       6200           400            1200           63.779372      1.642126     
        35   327.2358      -28016.44       6200           400            1200           63.895841      1.6448535    
        36   325.48201     -28016.439      6200           400            1200           64.064035      1.6433113    
        37   323.50443     -28016.439      6200           400            1200           64.282133      1.6374242    
        38   321.31203     -28016.438      6200           400            1200           64.547781      1.6271433    
        39   318.91559     -28016.437      6200           400            1200           64.858138      1.6124461    
        40   316.32757     -28016.436      6200           400            1200           65.209918      1.5933369    
        41   313.56206     -28016.435      6200           400            1200           65.59946       1.5698462    
        42   310.63462     -28016.434      6200           400            1200           66.022773      1.5420296    
        43   307.56219     -28016.433      6200           400            1200           66.475604      1.5099672    
        44   304.3629      -28016.432      6200           400            1200           66.953493      1.485483     
        45   301.05596     -28016.43       6200           400            1200           67.451832      1.4979817    
        46   297.66148     -28016.429      6200           400            1200           67.965931      1.507327     
        47   294.20029     -28016.428      6200           400            1200           68.491072      1.5323038    
        48   290.69379     -28016.426      6200           400            1200           69.022555      1.567945     
        49   287.16373     -28016.425      6200           400            1200           69.555739      1.5999804    
        50   283.63207     -28016.424      6200           400            1200           70.086109      1.6283071    
        51   280.12077     -28016.422      6200           400            1200           70.609293      1.6528348    
        52   276.65162     -28016.421      6200           400            1200           71.121116      1.6734874    
        53   273.24602     -28016.42       6200           400            1200           71.617627      1.6902039    
        54   269.92488     -28016.418      6200           400            1200           72.095109      1.726004     
        55   266.70836     -28016.417      6200           400            1200           72.55013       1.7586895    
        56   263.6158      -28016.416      6200           400            1200           72.979541      1.7962232    
        57   260.66549     -28016.415      6200           400            1200           73.380491      1.8316148    
        58   257.87459     -28016.414      6200           400            1200           73.750443      1.862607     
        59   255.25898     -28016.413      6200           400            1200           74.087194      1.8890848    
        60   252.83314     -28016.412      6200           400            1200           74.388857      1.9109533    
        61   250.61008     -28016.412      6200           400            1200           74.653882      1.9281399    
        62   248.60123     -28016.411      6200           400            1200           74.881041      1.9405952    
        63   246.81642     -28016.41       6200           400            1200           75.069432      1.9482942    
        64   245.26377     -28016.41       6200           400            1200           75.218475      1.9512368    
        65   243.94974     -28016.41       6200           400            1200           75.32789       1.9494482    
        66   242.87904     -28016.41       6200           400            1200           75.397695      1.9899409    
        67   242.05468     -28016.409      6200           400            1200           75.428194      2.0310029    
        68   241.47801     -28016.41       6200           400            1200           75.419951      2.0665544    
        69   241.14866     -28016.41       6200           400            1200           75.373791      2.0963777    
        70   241.06472     -28016.41       6200           400            1200           75.290767      2.1202949    
        71   241.22266     -28016.41       6200           400            1200           75.172142      2.1381709    
        72   241.61753     -28016.411      6200           400            1200           75.019375      2.1499155    
        73   242.24293     -28016.411      6200           400            1200           74.834103      2.1554855    
        74   243.0912      -28016.412      6200           400            1200           74.618114      2.1548847    
        75   244.15342     -28016.412      6200           400            1200           74.37333       2.1481642    
        76   245.41959     -28016.413      6200           400            1200           74.101792      2.1354207    
        77   246.87867     -28016.414      6200           400            1200           73.80564       2.1167953    
        78   248.51876     -28016.414      6200           400            1200           73.487084      2.0924691    
        79   250.32714     -28016.415      6200           400            1200           73.148395      2.0626614    
        80   252.29043     -28016.416      6200           400            1200           72.791899      2.0276244    
        81   254.39465     -28016.417      6200           400            1200           72.419946      1.9876397    
        82   256.6254      -28016.418      6200           400            1200           72.034901      1.9430127    
        83   258.96788     -28016.419      6200           400            1200           71.63913       1.8940678    
        84   261.40707     -28016.42       6200           400            1200           71.234989      1.8411438    
        85   263.92776     -28016.42       6200           400            1200           70.82482       1.7845885    
        86   266.51471     -28016.421      6200           400            1200           70.41094       1.724754     
        87   269.15268     -28016.422      6200           400            1200           69.995627      1.7221058    
        88   271.82656     -28016.423      6200           400            1200           69.581114      1.7284802    
        89   274.52142     -28016.424      6200           400            1200           69.169581      1.7314504    
        90   277.2226      -28016.425      6200           400            1200           68.763161      1.7386784    
        91   279.9158      -28016.426      6200           400            1200           68.363922      1.7665344    
        92   282.58709     -28016.427      6200           400            1200           67.973872      1.78994      
        93   285.22305     -28016.427      6200           400            1200           67.594942      1.8088476    
        94   287.81074     -28016.428      6200           400            1200           67.228982      1.823237     
        95   290.33784     -28016.429      6200           400            1200           66.877759      1.8331153    
        96   292.79264     -28016.429      6200           400            1200           66.542958      1.8385168    
        97   295.1641      -28016.43       6200           400            1200           66.226155      1.8395013    
        98   297.44189     -28016.43       6200           400            1200           65.928833      1.8361527    
        99   299.61644     -28016.431      6200           400            1200           65.652362      1.8285768    
       100   301.67897     -28016.431      6200           400            1200           65.39799       1.8168992    
Loop time of 171.497 on 1 procs for 100 steps with 7800 atoms

Performance: 0.050 ns/day, 476.382 hours/ns, 0.583 timesteps/s, 4.548 katom-step/s
99.9% CPU use with 1 MPI tasks x 1 OpenMP threads

MPI task timing breakdown:
Section |  min time  |  avg time  |  max time  |%varavg| %total
---------------------------------------------------------------
Pair    | 167.6      | 167.6      | 167.6      |   0.0 | 97.73
Neigh   | 0          | 0          | 0          |   0.0 |  0.00
Comm    | 0.011647   | 0.011647   | 0.011647   |   0.0 |  0.01
Output  | 0.034092   | 0.034092   | 0.034092   |   0.0 |  0.02
Modify  | 3.845      | 3.845      | 3.845      |   0.0 |  2.24
Other   |            | 0.003536   |            |       |  0.00

Nlocal:           7800 ave        7800 max        7800 min
Histogram: 1 0 0 0 0 0 0 0 0 0
Nghost:          16224 ave       16224 max       16224 min
Histogram: 1 0 0 0 0 0 0 0 0 0
Neighs:    1.33708e+06 ave 1.33708e+06 max 1.33708e+06 min
Histogram: 1 0 0 0 0 0 0 0 0 0
FullNghs:  2.67415e+06 ave 2.67415e+06 max 2.67415e+06 min
Histogram: 1 0 0 0 0 0 0 0 0 0

Total # of neighbors = 2674154
Ave neighs/atom = 342.84026
Neighbor list builds = 0
Dangerous builds = 0
Total wall time: 0:02:53
