LAMMPS (10 Dec 2025 - Development - b6d2e3d6a9)
OMP_NUM_THREADS environment is not set. Defaulting to 1 thread.
  using 1 OpenMP thread(s) per MPI task
Reading data file ...
  orthogonal box = (0 0 -1.1656272) to (36.15 36.15 362.81506)
  1 by 1 by 4 MPI processor grid
  reading atoms ...
  40200 atoms
  reading velocities ...
  40200 velocities
  read_data CPU = 0.132 seconds
39199 atoms in group group_descriptor
ACE version: 2023.11.25
Recursive evaluator is used by ACE
Loading ../../../potentials/Cu-PBE-core-rep.ace
Total number of basis functions
	Cu: 16 (r=1) 726 (r>1)
Mapping LAMMPS atom type #1(Cu) -> ACE species type #0
atomic load lambda:
	fast potential: extract eam/apip:time_per_atom
	precise potential: extract pace/apip:time_per_atom
	lambda_input: const 0
	lambda: const 0
Neighbor list info ...
  update: every = 1 steps, delay = 0 steps, check = yes
  max neighbors/atom: 2000, page size: 100000
  master list distance cutoff = 10
  ghost atom cutoff = 10
  binsize = 5, bins = 8 8 73
  4 neighbor lists, perpetual/occasional/extra = 4 0 0
  (1) pair eam/fs/apip, perpetual
      attributes: full, newton on
      pair build: full/bin/atomonly
      stencil: full/bin/3d
      bin: standard
  (2) pair pace/apip, perpetual, trim from (4)
      attributes: full, newton on, cut 9.4
      pair build: trim
      stencil: none
      bin: none
  (3) pair zero, perpetual, half/full from (1)
      attributes: half, newton on, cut 10
      pair build: halffull/newton
      stencil: none
      bin: none
  (4) fix lambda/la/csp/apip, perpetual
      attributes: full, newton on, cut 10
      pair build: full/bin/atomonly
      stencil: full/bin/3d
      bin: standard
Setting up Verlet run ...
  Unit style    : metal
  Current step  : 0
  Time step     : 0.001
  eam/apip      : compute potential energies for local-averaging forces
  pace/apip     : compute potential energies for local-averaging forces
Per MPI rank memory allocation (min/avg/max) = 59.01 | 60.08 | 61.35 Mbytes
   Step     f_weight_atom[1] f_weight_atom[2]     S/CPU     
         0   0              0              0            
        10   2.2128357e-06  0.00021032807  2.435227     
        20   2.8069524e-06  0.00027017815  2.0210591    
        30   2.8447577e-06  0.00027178424  2.0040427    
        40   2.8511147e-06  0.00027271553  1.999452     
        50   2.8912584e-06  0.00027393897  1.9865938    
        60   2.8996167e-06  0.00027510545  1.9787146    
        70   2.9258309e-06  0.00027539582  1.9724373    
        80   2.9412965e-06  0.00027665466  1.965132     
        90   2.9679576e-06  0.00027882916  1.9521923    
       100   2.9604478e-06  0.00027871963  1.9496617    
Loop time of 49.5433 on 4 procs for 100 steps with 40200 atoms

Performance: 0.174 ns/day, 137.620 hours/ns, 2.018 timesteps/s, 81.141 katom-step/s
99.8% CPU use with 4 MPI tasks x 1 OpenMP threads

MPI task timing breakdown:
Section |  min time  |  avg time  |  max time  |%varavg| %total
---------------------------------------------------------------
Pair    | 2.8086     | 8.2449     | 24.34      | 323.6 | 16.64
Neigh   | 1.7461     | 1.7926     | 1.8472     |   3.2 |  3.62
Comm    | 0.055638   | 5.6723     | 21.605     | 386.4 | 11.45
Output  | 0.00020455 | 0.00030652 | 0.00041421 |   0.0 |  0.00
Modify  | 22.742     | 33.819     | 44.7       | 185.2 | 68.26
Other   |            | 0.01409    |            |       |  0.03

Nlocal:          10050 ave       10169 max       10000 min
Histogram: 2 1 0 0 0 0 0 0 0 1
Nghost:          18059 ave       19279 max       16908 min
Histogram: 2 0 0 0 0 0 0 0 0 2
Neighs:    1.77282e+06 ave 1.82762e+06 max 1.69559e+06 min
Histogram: 1 0 0 0 0 1 0 1 0 1
FullNghs:  3.54563e+06 ave 3.65319e+06 max 3.46439e+06 min
Histogram: 2 0 0 0 0 0 0 1 0 1

Total # of neighbors = 14182536
Ave neighs/atom = 352.7994
Neighbor list builds = 10
Dangerous builds = 0
Total wall time: 0:00:50
