LAMMPS (10 Dec 2025 - Development - b6d2e3d6a9)
OMP_NUM_THREADS environment is not set. Defaulting to 1 thread.
  using 1 OpenMP thread(s) per MPI task
Reading data file ...
  orthogonal box = (0 0 0) to (36.15 36.15 90.375)
  1 by 1 by 1 MPI processor grid
  reading atoms ...
  7800 atoms
  reading velocities ...
  7800 velocities
  read_data CPU = 0.026 seconds
ACE version: 2023.11.25
Recursive evaluator is used by ACE
Loading ../../../potentials/Cu-PBE-core-rep.ace
Total number of basis functions
	Cu: 16 (r=1) 726 (r>1)
Mapping LAMMPS atom type #1(Cu) -> ACE species type #0
Neighbor list info ...
  update: every = 1 steps, delay = 0 steps, check = yes
  max neighbors/atom: 2000, page size: 100000
  master list distance cutoff = 10
  ghost atom cutoff = 10
  binsize = 5, bins = 8 8 19
  4 neighbor lists, perpetual/occasional/extra = 4 0 0
  (1) pair eam/fs/apip, perpetual
      attributes: full, newton on
      pair build: full/bin/atomonly
      stencil: full/bin/3d
      bin: standard
  (2) pair pace/apip, perpetual, trim from (4)
      attributes: full, newton on, cut 9.4
      pair build: trim
      stencil: none
      bin: none
  (3) pair zero, perpetual, half/full from (1)
      attributes: half, newton on, cut 10
      pair build: halffull/newton
      stencil: none
      bin: none
  (4) fix lambda/la/csp/apip, perpetual
      attributes: full, newton on, cut 10
      pair build: full/bin/atomonly
      stencil: full/bin/3d
      bin: standard
Setting up Verlet run ...
  Unit style    : metal
  Current step  : 0
  Time step     : 0.001
  eam/apip      : compute potential energies for local-averaging forces
  pace/apip     : compute potential energies for local-averaging forces
Per MPI rank memory allocation (min/avg/max) = 48.68 | 48.68 | 48.68 Mbytes
   Step          Temp          TotEng     c_lambda_types[1] c_lambda_types[2] c_lambda_types[3]     Fnorm           Fmax     
         0   300           -27986.578      6200           400            1200           78.274475      1.8980813    
         1   300.25293     -27986.578      6200           400            1200           78.238781      1.8831771    
         2   300.75801     -27986.578      6200           400            1200           78.145001      1.8820248    
         3   301.5106      -27986.578      6200           400            1200           77.993844      1.9040086    
         4   302.50339     -27986.579      6200           400            1200           77.786489      1.9215781    
         5   303.72645     -27986.58       6200           400            1200           77.524582      1.9346929    
         6   305.16732     -27986.581      6200           400            1200           77.210243      1.9433336    
         7   306.81117     -27986.582      6200           400            1200           76.846044      1.9475015    
         8   308.6409      -27986.583      6200           400            1200           76.435017      1.9472182    
         9   310.63733     -27986.584      6200           400            1200           75.980639      1.9425249    
        10   312.7794      -27986.586      6200           400            1200           75.486819      1.933481     
        11   315.04438     -27986.587      6200           400            1200           74.957889      1.920163     
        12   317.40806     -27986.589      6200           400            1200           74.398581      1.902663     
        13   319.84503     -27986.591      6200           400            1200           73.814011      1.8810866    
        14   322.32892     -27986.592      6200           400            1200           73.20965       1.8764121    
        15   324.83263     -27986.594      6200           400            1200           72.591297      1.8794931    
        16   327.32862     -27986.596      6200           400            1200           71.965037      1.8788545    
        17   329.7892      -27986.598      6200           400            1200           71.337206      1.8744881    
        18   332.18673     -27986.599      6200           400            1200           70.714341      1.8664012    
        19   334.49397     -27986.601      6200           400            1200           70.103122      1.8546161    
        20   336.68426     -27986.603      6200           400            1200           69.510308      1.839169     
        21   338.73185     -27986.604      6200           400            1200           68.942672      1.8201093    
        22   340.61211     -27986.606      6200           400            1200           68.406918      1.7974984    
        23   342.30175     -27986.607      6200           400            1200           67.909594      1.7714082    
        24   343.77909     -27986.609      6200           400            1200           67.456999      1.7419197    
        25   345.02425     -27986.61       6200           400            1200           67.055086      1.709122     
        26   346.01934     -27986.611      6200           400            1200           66.70936       1.6731107    
        27   346.74866     -27986.612      6200           400            1200           66.42477       1.6339868    
        28   347.19883     -27986.612      6200           400            1200           66.205617      1.5987156    
        29   347.35899     -27986.613      6200           400            1200           66.055445      1.6300944    
        30   347.22085     -27986.613      6200           400            1200           65.976966      1.6577065    
        31   346.77886     -27986.614      6200           400            1200           65.971985      1.6813013    
        32   346.03025     -27986.614      6200           400            1200           66.041337      1.70065      
        33   344.97507     -27986.613      6200           400            1200           66.184859      1.7155483    
        34   343.61628     -27986.613      6200           400            1200           66.401368      1.7258186    
        35   341.95966     -27986.613      6200           400            1200           66.688678      1.7313125    
        36   340.01385     -27986.612      6200           400            1200           67.043631      1.7319118    
        37   337.79026     -27986.611      6200           400            1200           67.46215       1.7275298    
        38   335.30299     -27986.61       6200           400            1200           67.939331      1.7181117    
        39   332.56868     -27986.609      6200           400            1200           68.469526      1.7281403    
        40   329.60639     -27986.608      6200           400            1200           69.046454      1.7621444    
        41   326.43741     -27986.606      6200           400            1200           69.663334      1.7908907    
        42   323.08502     -27986.605      6200           400            1200           70.313         1.8141159    
        43   319.57428     -27986.603      6200           400            1200           70.988041      1.8316005    
        44   315.93175     -27986.601      6200           400            1200           71.680916      1.8431745    
        45   312.18523     -27986.6        6200           400            1200           72.384079      1.8562671    
        46   308.36344     -27986.598      6200           400            1200           73.090102      1.8621482    
        47   304.49569     -27986.596      6200           400            1200           73.791768      1.8605815    
        48   300.61162     -27986.594      6200           400            1200           74.48216       1.8517236    
        49   296.74084     -27986.592      6200           400            1200           75.15474       1.8491245    
        50   292.91262     -27986.591      6200           400            1200           75.803409      1.8595339    
        51   289.1556      -27986.589      6200           400            1200           76.422567      1.8641131    
        52   285.4975      -27986.587      6200           400            1200           77.007133      1.8940429    
        53   281.96481     -27986.586      6200           400            1200           77.552581      1.9481856    
        54   278.5826      -27986.584      6200           400            1200           78.054948      1.9971091    
        55   275.37424     -27986.583      6200           400            1200           78.510842      2.0405793    
        56   272.36121     -27986.582      6200           400            1200           78.917432      2.0783904    
        57   269.56297     -27986.58       6200           400            1200           79.272439      2.110368     
        58   266.99674     -27986.58       6200           400            1200           79.574124      2.1363712    
        59   264.67746     -27986.579      6200           400            1200           79.821265      2.1562954    
        60   262.61769     -27986.578      6200           400            1200           80.013129      2.1700731    
        61   260.82752     -27986.578      6200           400            1200           80.149447      2.1776754    
        62   259.31462     -27986.577      6200           400            1200           80.230393      2.179112     
        63   258.08419     -27986.577      6200           400            1200           80.256549      2.1744315    
        64   257.13899     -27986.577      6200           400            1200           80.22888       2.1637202    
        65   256.47946     -27986.577      6200           400            1200           80.148703      2.156281     
        66   256.10374     -27986.577      6200           400            1200           80.017658      2.1973459    
        67   256.00778     -27986.578      6200           400            1200           79.837682      2.2318924    
        68   256.18549     -27986.578      6200           400            1200           79.61098       2.2596916    
        69   256.62884     -27986.579      6200           400            1200           79.339988      2.2805677    
        70   257.32802     -27986.579      6200           400            1200           79.02735       2.294401     
        71   258.27161     -27986.58       6200           400            1200           78.675886      2.3011306    
        72   259.44671     -27986.581      6200           400            1200           78.288572      2.3007549    
        73   260.83915     -27986.582      6200           400            1200           77.868497      2.2933316    
        74   262.43364     -27986.583      6200           400            1200           77.418853      2.2789758    
        75   264.21395     -27986.583      6200           400            1200           76.942892      2.2578575    
        76   266.1631      -27986.584      6200           400            1200           76.443912      2.2301976    
        77   268.26348     -27986.585      6200           400            1200           75.925226      2.1962637    
        78   270.49707     -27986.587      6200           400            1200           75.390147      2.1563639    
        79   272.84558     -27986.588      6200           400            1200           74.841961      2.1108415    
        80   275.29056     -27986.589      6200           400            1200           74.283908      2.0600683    
        81   277.81362     -27986.59       6200           400            1200           73.71917       2.007457     
        82   280.39647     -27986.591      6200           400            1200           73.150851      2.015068     
        83   283.02113     -27986.592      6200           400            1200           72.581973      2.0164027    
        84   285.66997     -27986.592      6200           400            1200           72.015459      2.0115115    
        85   288.32584     -27986.593      6200           400            1200           71.454124      2.0004915    
        86   290.97217     -27986.594      6200           400            1200           70.900679      1.9834853    
        87   293.59301     -27986.595      6200           400            1200           70.357708      1.9606786    
        88   296.17314     -27986.596      6200           400            1200           69.827669      1.9322977    
        89   298.69811     -27986.596      6200           400            1200           69.312906      1.8986054    
        90   301.15431     -27986.597      6200           400            1200           68.815629      1.8976535    
        91   303.52895     -27986.598      6200           400            1200           68.337922      1.9178026    
        92   305.81018     -27986.598      6200           400            1200           67.881737      1.9325365    
        93   307.98707     -27986.599      6200           400            1200           67.448897      1.9418532    
        94   310.04962     -27986.599      6200           400            1200           67.041092      1.9457893    
        95   311.9888      -27986.599      6200           400            1200           66.659873      1.944418     
        96   313.79657     -27986.6        6200           400            1200           66.30665       1.9378477    
        97   315.46584     -27986.6        6200           400            1200           65.982695      1.9262185    
        98   316.99053     -27986.6        6200           400            1200           65.689133      1.9096994    
        99   318.36553     -27986.6        6200           400            1200           65.426927      1.8884842    
       100   319.58668     -27986.6        6200           400            1200           65.196892      1.862788     
Loop time of 41.9481 on 1 procs for 100 steps with 7800 atoms

Performance: 0.206 ns/day, 116.523 hours/ns, 2.384 timesteps/s, 18.594 katom-step/s
99.9% CPU use with 1 MPI tasks x 1 OpenMP threads

MPI task timing breakdown:
Section |  min time  |  avg time  |  max time  |%varavg| %total
---------------------------------------------------------------
Pair    | 30.282     | 30.282     | 30.282     |   0.0 | 72.19
Neigh   | 0          | 0          | 0          |   0.0 |  0.00
Comm    | 0.011403   | 0.011403   | 0.011403   |   0.0 |  0.03
Output  | 0.034758   | 0.034758   | 0.034758   |   0.0 |  0.08
Modify  | 11.616     | 11.616     | 11.616     |   0.0 | 27.69
Other   |            | 0.003527   |            |       |  0.01

Nlocal:           7800 ave        7800 max        7800 min
Histogram: 1 0 0 0 0 0 0 0 0 0
Nghost:          16224 ave       16224 max       16224 min
Histogram: 1 0 0 0 0 0 0 0 0 0
Neighs:    1.33708e+06 ave 1.33708e+06 max 1.33708e+06 min
Histogram: 1 0 0 0 0 0 0 0 0 0
FullNghs:  2.67415e+06 ave 2.67415e+06 max 2.67415e+06 min
Histogram: 1 0 0 0 0 0 0 0 0 0

Total # of neighbors = 2674154
Ave neighs/atom = 342.84026
Neighbor list builds = 0
Dangerous builds = 0
Total wall time: 0:00:42
