LAMMPS (10 Dec 2025 - Development - b6d2e3d6a9)
OMP_NUM_THREADS environment is not set. Defaulting to 1 thread.
  using 1 OpenMP thread(s) per MPI task
Reading data file ...
  orthogonal box = (0 0 0) to (36.15 36.15 90.375)
  1 by 1 by 1 MPI processor grid
  reading atoms ...
  7800 atoms
  reading velocities ...
  7800 velocities
  read_data CPU = 0.026 seconds
Neighbor list info ...
  update: every = 1 steps, delay = 0 steps, check = yes
  max neighbors/atom: 2000, page size: 100000
  master list distance cutoff = 10
  ghost atom cutoff = 10
  binsize = 5, bins = 8 8 19
  3 neighbor lists, perpetual/occasional/extra = 3 0 0
  (1) pair eam/fs, perpetual, half/full from (3)
      attributes: half, newton on
      pair build: halffull/newton
      stencil: none
      bin: none
  (2) pair zero, perpetual, half/full from (3)
      attributes: half, newton on, cut 10
      pair build: halffull/newton
      stencil: none
      bin: none
  (3) fix lambda/la/csp/apip, perpetual
      attributes: full, newton on, cut 10
      pair build: full/bin/atomonly
      stencil: full/bin/3d
      bin: standard
Setting up Verlet run ...
  Unit style    : metal
  Current step  : 0
  Time step     : 0.001
Per MPI rank memory allocation (min/avg/max) = 33.36 | 33.36 | 33.36 Mbytes
   Step          Temp          TotEng     c_lambda_types[1] c_lambda_types[2] c_lambda_types[3]     Fnorm           Fmax     
         0   300           -28067.939      6200           400            1200           77.911905      1.7133729    
         1   300.28708     -28067.939      6200           400            1200           77.869584      1.7444026    
         2   300.81033     -28067.94       6200           400            1200           77.767566      1.7701596    
         3   301.56504     -28067.94       6200           400            1200           77.606605      1.7904687    
         4   302.54384     -28067.941      6200           400            1200           77.387932      1.8051893    
         5   303.73683     -28067.942      6200           400            1200           77.113258      1.8142175    
         6   305.13164     -28067.942      6200           400            1200           76.784763      1.8174882    
         7   306.71359     -28067.944      6200           400            1200           76.40509       1.814976     
         8   308.4658      -28067.945      6200           400            1200           75.977337      1.8066954    
         9   310.36941     -28067.946      6200           400            1200           75.505043      1.7927011    
        10   312.40374     -28067.947      6200           400            1200           74.992172      1.7774997    
        11   314.54652     -28067.949      6200           400            1200           74.443095      1.7773446    
        12   316.77414     -28067.95       6200           400            1200           73.86257       1.7714697    
        13   319.06185     -28067.952      6200           400            1200           73.255715      1.7599817    
        14   321.38405     -28067.954      6200           400            1200           72.627976      1.7430326    
        15   323.71452     -28067.955      6200           400            1200           71.985096      1.7208163    
        16   326.02672     -28067.957      6200           400            1200           71.333069      1.6935634    
        17   328.29403     -28067.959      6200           400            1200           70.6781        1.6615364    
        18   330.49004     -28067.96       6200           400            1200           70.026549      1.6454288    
        19   332.58876     -28067.962      6200           400            1200           69.384872      1.6350039    
        20   334.56495     -28067.963      6200           400            1200           68.759561      1.6191856    
        21   336.3943      -28067.965      6200           400            1200           68.157069      1.598099     
        22   338.05372     -28067.966      6200           400            1200           67.583736      1.5813505    
        23   339.52149     -28067.967      6200           400            1200           67.045709      1.5625064    
        24   340.77754     -28067.968      6200           400            1200           66.548856      1.5401434    
        25   341.8036      -28067.969      6200           400            1200           66.098677      1.5144146    
        26   342.58335     -28067.97       6200           400            1200           65.700224      1.525749     
        27   343.10263     -28067.971      6200           400            1200           65.358012      1.5638395    
        28   343.34951     -28067.971      6200           400            1200           65.075941      1.5987161    
        29   343.3144      -28067.972      6200           400            1200           64.85723       1.6300949    
        30   342.99018     -28067.972      6200           400            1200           64.70435       1.6577068    
        31   342.37223     -28067.972      6200           400            1200           64.618984      1.6813015    
        32   341.45845     -28067.972      6200           400            1200           64.601992      1.7006501    
        33   340.24933     -28067.972      6200           400            1200           64.653401      1.7155482    
        34   338.74788     -28067.972      6200           400            1200           64.772404      1.7258183    
        35   336.95965     -28067.971      6200           400            1200           64.957386      1.731312     
        36   334.89264     -28067.97       6200           400            1200           65.205957      1.731911     
        37   332.55727     -28067.97       6200           400            1200           65.515008      1.7275287    
        38   329.96625     -28067.969      6200           400            1200           65.880772      1.7181104    
        39   327.13445     -28067.968      6200           400            1200           66.298903      1.7036336    
        40   324.07883     -28067.966      6200           400            1200           66.764555      1.6841087    
        41   320.81821     -28067.965      6200           400            1200           67.272468      1.6595787    
        42   317.37316     -28067.964      6200           400            1200           67.817057      1.6301173    
        43   313.7658      -28067.962      6200           400            1200           68.392494      1.5958272    
        44   310.01956     -28067.961      6200           400            1200           68.992798      1.6389433    
        45   306.15904     -28067.959      6200           400            1200           69.611909      1.6813626    
        46   302.20972     -28067.957      6200           400            1200           70.243766      1.7195768    
        47   298.19779     -28067.956      6200           400            1200           70.882372      1.7534505    
        48   294.14987     -28067.954      6200           400            1200           71.52186       1.7828631    
        49   290.0928      -28067.952      6200           400            1200           72.156543      1.8077107    
        50   286.05339     -28067.951      6200           400            1200           72.780967      1.8279074    
        51   282.05818     -28067.949      6200           400            1200           73.38995       1.8433865    
        52   278.13323     -28067.947      6200           400            1200           73.978625      1.8541021    
        53   274.30387     -28067.946      6200           400            1200           74.542462      1.8600293    
        54   270.59448     -28067.945      6200           400            1200           75.077301      1.9032263    
        55   267.02831     -28067.943      6200           400            1200           75.579371      1.9473542    
        56   263.6273      -28067.942      6200           400            1200           76.045302      1.9864721    
        57   260.41184     -28067.941      6200           400            1200           76.472142      2.0203972    
        58   257.4007      -28067.94       6200           400            1200           76.857361      2.0489726    
        59   254.61085     -28067.939      6200           400            1200           77.198854      2.0720696    
        60   252.05734     -28067.938      6200           400            1200           77.494942      2.0895908    
        61   249.75322     -28067.937      6200           400            1200           77.744364      2.1014716    
        62   247.70947     -28067.937      6200           400            1200           77.946276      2.1076819    
        63   245.93496     -28067.936      6200           400            1200           78.100231      2.1082265    
        64   244.4364      -28067.936      6200           400            1200           78.206174      2.1089755    
        65   243.21837     -28067.936      6200           400            1200           78.264417      2.156281     
        66   242.28332     -28067.936      6200           400            1200           78.275628      2.1973459    
        67   241.63161     -28067.936      6200           400            1200           78.240803      2.2318924    
        68   241.26157     -28067.936      6200           400            1200           78.161247      2.2596916    
        69   241.16959     -28067.937      6200           400            1200           78.038548      2.2805677    
        70   241.35018     -28067.937      6200           400            1200           77.874554      2.294401     
        71   241.79612     -28067.938      6200           400            1200           77.671341      2.3011306    
        72   242.49853     -28067.938      6200           400            1200           77.431193      2.3007549    
        73   243.44703     -28067.939      6200           400            1200           77.156573      2.2933316    
        74   244.62986     -28067.94       6200           400            1200           76.850093      2.2789758    
        75   246.03404     -28067.941      6200           400            1200           76.514493      2.2578575    
        76   247.64548     -28067.941      6200           400            1200           76.152613      2.2301976    
        77   249.44914     -28067.942      6200           400            1200           75.76737       2.1962637    
        78   251.4292      -28067.943      6200           400            1200           75.361736      2.1563639    
        79   253.56918     -28067.944      6200           400            1200           74.938711      2.1108415    
        80   255.85207     -28067.945      6200           400            1200           74.501313      2.0600683    
        81   258.26051     -28067.947      6200           400            1200           74.052549      2.0044383    
        82   260.77687     -28067.948      6200           400            1200           73.595403      1.944361     
        83   263.38343     -28067.949      6200           400            1200           73.132822      1.8802555    
        84   266.06247     -28067.95       6200           400            1200           72.667696      1.812544     
        85   268.79638     -28067.951      6200           400            1200           72.20285       1.741647     
        86   271.56779     -28067.952      6200           400            1200           71.741033      1.7166921    
        87   274.35965     -28067.953      6200           400            1200           71.284902      1.7580568    
        88   277.15535     -28067.954      6200           400            1200           70.837019      1.7947076    
        89   279.93874     -28067.955      6200           400            1200           70.39984       1.8264954    
        90   282.69431     -28067.955      6200           400            1200           69.975707      1.8533029    
        91   285.40716     -28067.956      6200           400            1200           69.56684       1.8750471    
        92   288.06314     -28067.957      6200           400            1200           69.175334      1.8916786    
        93   290.64885     -28067.958      6200           400            1200           68.803149      1.903183     
        94   293.15172     -28067.958      6200           400            1200           68.452103      1.9095795    
        95   295.56008     -28067.959      6200           400            1200           68.12387       1.9109203    
        96   297.86314     -28067.96       6200           400            1200           67.819968      1.9072886    
        97   300.05107     -28067.96       6200           400            1200           67.541756      1.8987967    
        98   302.11501     -28067.961      6200           400            1200           67.290425      1.8855831    
        99   304.04711     -28067.961      6200           400            1200           67.066991      1.8678102    
       100   305.84054     -28067.961      6200           400            1200           66.87229       1.8456603    
Loop time of 4.82423 on 1 procs for 100 steps with 7800 atoms

Performance: 1.791 ns/day, 13.401 hours/ns, 20.729 timesteps/s, 161.684 katom-step/s
99.9% CPU use with 1 MPI tasks x 1 OpenMP threads

MPI task timing breakdown:
Section |  min time  |  avg time  |  max time  |%varavg| %total
---------------------------------------------------------------
Pair    | 1.0501     | 1.0501     | 1.0501     |   0.0 | 21.77
Neigh   | 0          | 0          | 0          |   0.0 |  0.00
Comm    | 0.0089955  | 0.0089955  | 0.0089955  |   0.0 |  0.19
Output  | 0.032598   | 0.032598   | 0.032598   |   0.0 |  0.68
Modify  | 3.729      | 3.729      | 3.729      |   0.0 | 77.30
Other   |            | 0.003478   |            |       |  0.07

Nlocal:           7800 ave        7800 max        7800 min
Histogram: 1 0 0 0 0 0 0 0 0 0
Nghost:          16224 ave       16224 max       16224 min
Histogram: 1 0 0 0 0 0 0 0 0 0
Neighs:    1.33708e+06 ave 1.33708e+06 max 1.33708e+06 min
Histogram: 1 0 0 0 0 0 0 0 0 0
FullNghs:  2.67415e+06 ave 2.67415e+06 max 2.67415e+06 min
Histogram: 1 0 0 0 0 0 0 0 0 0

Total # of neighbors = 2674154
Ave neighs/atom = 342.84026
Neighbor list builds = 0
Dangerous builds = 0
Total wall time: 0:00:04
