LAMMPS (11 Feb 2026 - Development - patch_11Feb2026-159-gddd6fdf6d6-modified)
# two monomer nylon example
# reaction produces a condensed water molecule

units real

boundary p p p

atom_style full

kspace_style pppm 1.0e-4

pair_style lj/class2/coul/long 8.5

angle_style class2

bond_style class2

dihedral_style class2

improper_style class2

special_bonds lj/coul 0 0 1
pair_modify tail yes mix sixthpower

read_data tiny_nylon.data   extra/bond/per/atom 5    extra/angle/per/atom 15   extra/dihedral/per/atom 15   extra/improper/per/atom 25   extra/special/per/atom 25
Reading data file ...
  orthogonal box = (-25 -25 -25) to (25 25 25)
  1 by 2 by 2 MPI processor grid
  reading atom labelmap ...
  reading bond labelmap ...
  reading angle labelmap ...
  reading dihedral labelmap ...
  reading improper labelmap ...
  reading atoms ...
  44 atoms
  reading velocities ...
  44 velocities
  scanning bonds ...
  9 = max bonds/atom
  scanning angles ...
  21 = max angles/atom
  scanning dihedrals ...
  29 = max dihedrals/atom
  scanning impropers ...
  29 = max impropers/atom
  orthogonal box = (-25 -25 -25) to (25 25 25)
  1 by 2 by 2 MPI processor grid
  reading bonds ...
  42 bonds
  reading angles ...
  74 angles
  reading dihedrals ...
  100 dihedrals
  reading impropers ...
  16 impropers
Finding 1-2 1-3 1-4 neighbors ...
  special bond factors lj:    0        0        1       
  special bond factors coul:  0        0        1       
     4 = max # of 1-2 neighbors
     6 = max # of 1-3 neighbors
    35 = max # of special neighbors
  special bonds CPU = 0.000 seconds
  read_data CPU = 0.006 seconds

velocity all create 300.0 4928459 dist gaussian

molecule mol1 rxn1_stp1_unreacted.json auto adi
Read molecule template mol1:
(no title)
  1 molecules
  0 fragments
  0 bodies
  18 atoms with max type 8
  16 bonds with max type 8
  25 angles with max type 25
  23 dihedrals with max type 33
  2 impropers with max type 3
molecule mol2 rxn1_stp1_reacted.json auto adi
Read molecule template mol2:
(no title)
  1 molecules
  0 fragments
  0 bodies
  18 atoms with max type 9
  17 bonds with max type 11
  31 angles with max type 24
  39 dihedrals with max type 30
  0 impropers with max type 0
molecule mol3 rxn1_stp2_unreacted.json auto adi
Read molecule template mol3:
(no title)
  1 molecules
  0 fragments
  0 bodies
  15 atoms with max type 9
  14 bonds with max type 11
  25 angles with max type 24
  30 dihedrals with max type 30
  0 impropers with max type 0
molecule mol4 rxn1_stp2_reacted.json auto adi
Read molecule template mol4:
(no title)
  1 molecules
  0 fragments
  0 bodies
  15 atoms with max type 11
  13 bonds with max type 13
  19 angles with max type 26
  16 dihedrals with max type 29
  2 impropers with max type 5

thermo 50

# dump 1 all xyz 1 test_vis.xyz
# dump_modify 1 types labels

fix myrxns all bond/react stabilization yes statted_grp .03   react rxn1 all 1 0.0 2.9 mol1 mol2 rxn1_stp1_map   react rxn2 all 1 0.0 5.0 mol3 mol4 rxn1_stp2_map rescale_charges yes
WARNING: Fix bond/react: Atom affected by reaction rxn1 is too close to template edge (src/REACTION/fix_bond_react.cpp:2653)
WARNING: Fix bond/react: Atom affected by reaction rxn2 is too close to template edge (src/REACTION/fix_bond_react.cpp:2653)
dynamic group bond_react_MASTER_group defined
dynamic group statted_grp_REACT defined

fix 1 statted_grp_REACT nvt temp 300 300 100

# optionally, you can customize behavior of reacting atoms,
# by using the internally-created 'bond_react_MASTER_group', like so:
fix 4 bond_react_MASTER_group temp/rescale 1 300 300 10 1

thermo_style custom step temp press density f_myrxns[*]
thermo_modify colname auto

# restart 100 restart1 restart2

run 10000

CITE-CITE-CITE-CITE-CITE-CITE-CITE-CITE-CITE-CITE-CITE-CITE-CITE

Your simulation uses code contributions which should be cited:

- Type Label Framework: https://doi.org/10.1021/acs.jpcb.3c08419

@Article{Gissinger24,
 author = {Jacob R. Gissinger, Ilia Nikiforov, Yaser Afshar, Brendon Waters, Moon-ki Choi, Daniel S. Karls, Alexander Stukowski, Wonpil Im, Hendrik Heinz, Axel Kohlmeyer, and Ellad B. Tadmor},
 title = {Type Label Framework for Bonded Force Fields in LAMMPS},
 journal = {J. Phys. Chem. B},
 year =    2024,
 volume =  128,
 number =  13,
 pages =   {3282--3297}
}

- fix bond/react: https://reacter.org, https://doi.org/10.1016/j.polymer.2017.09.038, https://doi.org/10.1021/acs.macromol.0c02012, https://doi.org/10.1016/j.cpc.2024.109287

@Article{Gissinger17,
 author = {J. R. Gissinger and B. D. Jensen and K. E. Wise},
 title = {Modeling Chemical Reactions in Classical Molecular Dynamics Simulations},
 journal = {Polymer},
 year =    2017,
 volume =  128,
 pages =   {211--217}
}

@Article{Gissinger20,
 author = {J. R. Gissinger, B. D. Jensen, K. E. Wise},
 title = {{REACTER}: A Heuristic Method for Reactive Molecular Dynamics},
 journal = {Macromolecules},
 year =    2020,
 volume =  53,
 number =  22,
 pages =   {9953--9961}
}

@Article{Gissinger24,
 author = {J. R. Gissinger, B. D. Jensen, K. E. Wise},
 title = {Molecular Modeling of Reactive Systems with REACTER},
 journal = {Computer Physics Communications},
 year =    2024,
 volume =  304,
 number =  109287
}

CITE-CITE-CITE-CITE-CITE-CITE-CITE-CITE-CITE-CITE-CITE-CITE-CITE

PPPM initialization ...
  using 12-bit tables for long-range coulomb
  G vector (1/distance) = 0.23408048
  grid = 15 15 15
  stencil order = 5
  estimated absolute RMS force accuracy = 0.018627396
  estimated relative force accuracy = 5.6095851e-05
  using double precision KISS FFT
  3d grid and FFT values/proc = 3380 960
Generated 55 of 55 mixed pair_coeff terms from sixthpower/sixthpower mixing rule
Neighbor list info ...
  update: every = 1 steps, delay = 0 steps, check = yes
  max neighbors/atom: 2000, page size: 100000
  master list distance cutoff = 10.5
  ghost atom cutoff = 10.5
  binsize = 5.25, bins = 10 10 10
  2 neighbor lists, perpetual/occasional/extra = 1 1 0
  (1) pair lj/class2/coul/long, perpetual
      attributes: half, newton on
      pair build: half/bin/newton
      stencil: half/bin/3d
      bin: standard
  (2) fix bond/react, occasional, copy from (1)
      attributes: half, newton on
      pair build: copy
      stencil: none
      bin: none
Per MPI rank memory allocation (min/avg/max) = 33.49 | 33.72 | 34.28 Mbytes
   Step          Temp          Press         Density     f_myrxns:rxn1  f_myrxns:rxn2 
         0   300            357.25587      0.0034851739   0              0            
        50   323.13357     -36.901145      0.0034851739   1              0            
       100   303.51         11.102115      0.0034851739   1              1            
       150   332.31667     -25.20854       0.0034851739   1              1            
       200   278.87792      25.724788      0.0034851739   1              1            
       250   306.00815     -9.2221075      0.0034851739   1              1            
       300   254.72154     -5.7953243      0.0034851739   1              1            
       350   267.62849      23.758906      0.0034851739   1              1            
       400   320.81812      3.3741666      0.0034851739   1              1            
       450   376.12912     -10.240072      0.0034851739   1              1            
       500   409.47719      17.579329      0.0034851739   1              1            
       550   251.53859     -1.855726       0.0034851739   1              1            
       600   237.09927      19.34288       0.0034851739   1              1            
       650   325.85267      12.350177      0.0034851739   1              1            
       700   281.35713      2.4348116      0.0034851739   1              1            
       750   348.96295      10.699428      0.0034851739   1              1            
       800   285.14402     -34.310532      0.0034851739   1              1            
       850   272.05346     -29.232747      0.0034851739   1              1            
       900   233.75444      25.081062      0.0034851739   1              1            
       950   270.83373      36.530228      0.0034851739   1              1            
      1000   226.39853     -25.096605      0.0034851739   1              1            
      1050   252.97684     -38.371556      0.0034851739   1              1            
      1100   298.67431      53.002071      0.0034851739   1              1            
      1150   291.35418     -0.5873292      0.0034851739   1              1            
      1200   338.55036     -12.606207      0.0034851739   1              1            
      1250   273.47414      2.60749        0.0034851739   1              1            
      1300   238.32577      103.89002      0.0034851739   1              1            
      1350   289.7203       35.589669      0.0034851739   1              1            
      1400   308.54997     -14.26474       0.0034851739   1              1            
      1450   335.61769     -4.3227573      0.0034851739   1              1            
      1500   322.50674      17.455373      0.0034851739   1              1            
      1550   394.2999       9.2091519      0.0034851739   1              1            
      1600   381.17832      17.685279      0.0034851739   1              1            
      1650   335.99721     -48.364575      0.0034851739   1              1            
      1700   303.84751     -45.870032      0.0034851739   1              1            
      1750   320.31452     -11.515199      0.0034851739   1              1            
      1800   294.33869     -26.35506       0.0034851739   1              1            
      1850   279.71967      6.08188        0.0034851739   1              1            
      1900   303.75788     -49.286914      0.0034851739   1              1            
      1950   290.83148      5.2445057      0.0034851739   1              1            
      2000   233.30698      2.1573847      0.0034851739   1              1            
      2050   342.10511      48.769056      0.0034851739   1              1            
      2100   356.60518     -42.429133      0.0034851739   1              1            
      2150   330.93049     -10.464322      0.0034851739   1              1            
      2200   334.95641      45.887707      0.0034851739   1              1            
      2250   314.11619     -1.5434876      0.0034851739   1              1            
      2300   307.68641     -7.8034001      0.0034851739   1              1            
      2350   308.76756      21.598802      0.0034851739   1              1            
      2400   284.58948      1.5929493      0.0034851739   1              1            
      2450   355.55641      28.432663      0.0034851739   1              1            
      2500   295.58167      23.280848      0.0034851739   1              1            
      2550   371.25707     -10.58728       0.0034851739   1              1            
      2600   359.68341     -5.2907726      0.0034851739   1              1            
      2650   384.6798       20.865417      0.0034851739   1              1            
      2700   332.21994     -34.169414      0.0034851739   1              1            
      2750   300.42138     -12.291032      0.0034851739   1              1            
      2800   271.01311      32.378068      0.0034851739   1              1            
      2850   283.99145     -17.936892      0.0034851739   1              1            
      2900   258.28306      28.898778      0.0034851739   1              1            
      2950   267.29489      36.539519      0.0034851739   1              1            
      3000   293.40021      5.8287078      0.0034851739   1              1            
      3050   307.34374      6.9045185      0.0034851739   1              1            
      3100   354.41756      18.485277      0.0034851739   1              1            
      3150   324.13633     -21.423388      0.0034851739   1              1            
      3200   311.91519      0.74689118     0.0034851739   1              1            
      3250   331.69917      19.998501      0.0034851739   1              1            
      3300   345.30941     -9.8087947      0.0034851739   1              1            
      3350   241.40268     -7.2122535      0.0034851739   1              1            
      3400   330.91492      38.638196      0.0034851739   1              1            
      3450   304.50536      16.594641      0.0034851739   1              1            
      3500   310.54379      22.39052       0.0034851739   1              1            
      3550   289.81597     -32.48778       0.0034851739   1              1            
      3600   315.913        31.853028      0.0034851739   1              1            
      3650   324.65024      10.050418      0.0034851739   1              1            
      3700   304.9945       7.8301195      0.0034851739   1              1            
      3750   294.78067     -3.2631377      0.0034851739   1              1            
      3800   284.11377     -22.275792      0.0034851739   1              1            
      3850   220.69522      33.777465      0.0034851739   1              1            
      3900   256.29613     -53.418545      0.0034851739   1              1            
      3950   261.30627     -22.813215      0.0034851739   1              1            
      4000   305.80112      23.561146      0.0034851739   1              1            
      4050   275.54421      13.053881      0.0034851739   1              1            
      4100   315.75499      49.747322      0.0034851739   1              1            
      4150   315.96338     -38.079448      0.0034851739   1              1            
      4200   325.13857     -87.01902       0.0034851739   1              1            
      4250   338.81913      25.914142      0.0034851739   1              1            
      4300   388.38557      46.197706      0.0034851739   1              1            
      4350   294.83481     -41.839453      0.0034851739   1              1            
      4400   297.72576      16.664088      0.0034851739   1              1            
      4450   305.73003     -10.606181      0.0034851739   1              1            
      4500   298.48692     -22.392374      0.0034851739   1              1            
      4550   305.98391      21.91024       0.0034851739   1              1            
      4600   271.26849      14.578329      0.0034851739   1              1            
      4650   314.22063      29.952428      0.0034851739   1              1            
      4700   297.32624     -33.578621      0.0034851739   1              1            
      4750   325.00311     -49.80012       0.0034851739   1              1            
      4800   358.00261     -23.364892      0.0034851739   1              1            
      4850   360.31216      9.6486091      0.0034851739   1              1            
      4900   317.77261      24.298745      0.0034851739   1              1            
      4950   317.04436      22.331487      0.0034851739   1              1            
      5000   357.58241      23.31468       0.0034851739   1              1            
      5050   282.14913     -30.254296      0.0034851739   1              1            
      5100   272.52247     -10.901472      0.0034851739   1              1            
      5150   270.4524      -6.8827268      0.0034851739   1              1            
      5200   300.3521       64.929326      0.0034851739   1              1            
      5250   308.20583     -41.798255      0.0034851739   1              1            
      5300   325.55529     -27.954254      0.0034851739   1              1            
      5350   294.91412      25.438299      0.0034851739   1              1            
      5400   266.66918     -5.4735636      0.0034851739   1              1            
      5450   208.04894      9.5771991      0.0034851739   1              1            
      5500   246.1425      -19.580318      0.0034851739   1              1            
      5550   322.31812      16.498933      0.0034851739   1              1            
      5600   359.00369      12.899138      0.0034851739   1              1            
      5650   326.27724     -22.213591      0.0034851739   1              1            
      5700   267.13085      24.722767      0.0034851739   1              1            
      5750   338.23325     -6.8854669      0.0034851739   1              1            
      5800   296.02965     -46.77692       0.0034851739   1              1            
      5850   215.33228      39.976882      0.0034851739   1              1            
      5900   249.3337      -8.1120399      0.0034851739   1              1            
      5950   241.13267     -1.6905246      0.0034851739   1              1            
      6000   229.70969      22.993369      0.0034851739   1              1            
      6050   239.80034     -33.641252      0.0034851739   1              1            
      6100   287.79026     -24.348035      0.0034851739   1              1            
      6150   248.16127     -9.2052185      0.0034851739   1              1            
      6200   323.71354     -47.476208      0.0034851739   1              1            
      6250   327.28865     -32.632654      0.0034851739   1              1            
      6300   320.77767      16.0804        0.0034851739   1              1            
      6350   307.68509      0.1944429      0.0034851739   1              1            
      6400   329.08143     -21.472596      0.0034851739   1              1            
      6450   318.19579     -34.753263      0.0034851739   1              1            
      6500   275.61073      32.323869      0.0034851739   1              1            
      6550   257.23144      18.556693      0.0034851739   1              1            
      6600   274.51301     -2.4159555      0.0034851739   1              1            
      6650   236.9243      -14.812704      0.0034851739   1              1            
      6700   290.04921      1.9975556      0.0034851739   1              1            
      6750   297.68817      13.924398      0.0034851739   1              1            
      6800   316.11804      1.3563521      0.0034851739   1              1            
      6850   401.46232      70.115567      0.0034851739   1              1            
      6900   339.29932     -19.552437      0.0034851739   1              1            
      6950   320.24317      23.34253       0.0034851739   1              1            
      7000   295.90518     -19.717881      0.0034851739   1              1            
      7050   282.08396     -2.773803       0.0034851739   1              1            
      7100   307.30147     -31.048644      0.0034851739   1              1            
      7150   284.02881      19.40507       0.0034851739   1              1            
      7200   283.30101     -68.15113       0.0034851739   1              1            
      7250   278.64051      86.966139      0.0034851739   1              1            
      7300   330.84295     -18.711624      0.0034851739   1              1            
      7350   312.98066     -36.848008      0.0034851739   1              1            
      7400   347.3138       9.4767976      0.0034851739   1              1            
      7450   315.87087      43.920311      0.0034851739   1              1            
      7500   267.75156     -31.556573      0.0034851739   1              1            
      7550   276.65085      6.1891795      0.0034851739   1              1            
      7600   230.40446      7.4884271      0.0034851739   1              1            
      7650   280.11621      4.3729138      0.0034851739   1              1            
      7700   239.8512       6.3183186      0.0034851739   1              1            
      7750   288.54475     -39.588823      0.0034851739   1              1            
      7800   262.10062      30.375019      0.0034851739   1              1            
      7850   320.7353       26.459535      0.0034851739   1              1            
      7900   313.05966      10.364636      0.0034851739   1              1            
      7950   399.03782      7.696121       0.0034851739   1              1            
      8000   347.82482     -16.722983      0.0034851739   1              1            
      8050   361.31081      3.77975        0.0034851739   1              1            
      8100   334.84827     -12.573234      0.0034851739   1              1            
      8150   289.9115      -17.810893      0.0034851739   1              1            
      8200   288.93559      29.918984      0.0034851739   1              1            
      8250   329.06923      29.130347      0.0034851739   1              1            
      8300   307.64926     -3.2122786      0.0034851739   1              1            
      8350   308.50975      10.250504      0.0034851739   1              1            
      8400   305.22045      7.8395123      0.0034851739   1              1            
      8450   316.01134      13.227936      0.0034851739   1              1            
      8500   262.40908     -58.617843      0.0034851739   1              1            
      8550   329.58689      29.944145      0.0034851739   1              1            
      8600   347.90523      12.111574      0.0034851739   1              1            
      8650   337.48787     -7.5025796      0.0034851739   1              1            
      8700   358.36277     -57.37112       0.0034851739   1              1            
      8750   395.18676      16.399673      0.0034851739   1              1            
      8800   326.80324      21.606457      0.0034851739   1              1            
      8850   269.54447     -33.557034      0.0034851739   1              1            
      8900   338.35434     -28.108924      0.0034851739   1              1            
      8950   286.3217       50.413683      0.0034851739   1              1            
      9000   294.82723      10.755724      0.0034851739   1              1            
      9050   266.85948     -19.36416       0.0034851739   1              1            
      9100   294.69133     -18.169658      0.0034851739   1              1            
      9150   269.34694     -28.028372      0.0034851739   1              1            
      9200   274.16403     -12.16129       0.0034851739   1              1            
      9250   282.79902     -0.86787542     0.0034851739   1              1            
      9300   280.67602      34.756095      0.0034851739   1              1            
      9350   272.83169      28.332351      0.0034851739   1              1            
      9400   316.47763      20.311008      0.0034851739   1              1            
      9450   280.98259      36.841016      0.0034851739   1              1            
      9500   331.93043     -33.336776      0.0034851739   1              1            
      9550   293.33855     -16.992144      0.0034851739   1              1            
      9600   273.19381      13.351368      0.0034851739   1              1            
      9650   249.12256     -28.390935      0.0034851739   1              1            
      9700   257.86354     -9.1340856      0.0034851739   1              1            
      9750   250.12745     -2.9898511      0.0034851739   1              1            
      9800   267.25354      1.4864123      0.0034851739   1              1            
      9850   209.06214      36.635534      0.0034851739   1              1            
      9900   282.52457     -1.2795244      0.0034851739   1              1            
      9950   268.06782      60.658795      0.0034851739   1              1            
     10000   309.8645      -36.729301      0.0034851739   1              1            
Loop time of 1.65845 on 4 procs for 10000 steps with 44 atoms

Performance: 520.970 ns/day, 0.046 hours/ns, 6029.741 timesteps/s, 265.309 katom-step/s
99.4% CPU use with 4 MPI tasks x no OpenMP threads

MPI task timing breakdown:
Section |  min time  |  avg time  |  max time  |%varavg| %total
---------------------------------------------------------------
Pair    | 0.00049008 | 0.034593   | 0.10318    |  22.5 |  2.09
Bond    | 0.00099274 | 0.054105   | 0.18158    |  32.1 |  3.26
Kspace  | 1.1521     | 1.32       | 1.3947     |   8.7 | 79.59
Neigh   | 0.0039549  | 0.0039727  | 0.0039824  |   0.0 |  0.24
Comm    | 0.021066   | 0.037253   | 0.052539   |   7.7 |  2.25
Output  | 0.0013475  | 0.0017175  | 0.002611   |   1.2 |  0.10
Modify  | 0.18843    | 0.20014    | 0.22486    |   3.3 | 12.07
Other   |            | 0.006669   |            |       |  0.40

Nlocal:             11 ave          44 max           0 min
Histogram: 3 0 0 0 0 0 0 0 0 1
Nghost:           18.5 ave          44 max           0 min
Histogram: 1 0 0 2 0 0 0 0 0 1
Neighs:          234.5 ave         938 max           0 min
Histogram: 3 0 0 0 0 0 0 0 0 1

Total # of neighbors = 938
Ave neighs/atom = 21.318182
Ave special neighs/atom = 6.4090909
Neighbor list builds = 236
Dangerous builds = 0

# write_restart restart_longrun
# write_data restart_longrun.data
Total wall time: 0:00:01
