LAMMPS (10 Dec 2025 - Development - patch_10Dec2025-682-g2799bef4a9-modified)
OMP_NUM_THREADS environment is not set. Defaulting to 1 thread.
  using 1 OpenMP thread(s) per MPI task
# Liquid water hydrogen bonds

units           real
atom_style      full

pair_style      lj/cut/coul/long 12.0 12.0
bond_style      harmonic
angle_style     harmonic

read_data       data.spce
Reading data file ...
  orthogonal box = (0.02645 0.02645 0.02641) to (35.5328 35.5328 35.4736)
  2 by 2 by 1 MPI processor grid
  reading atoms ...
  4500 atoms
  scanning bonds ...
  2 = max bonds/atom
  scanning angles ...
  1 = max angles/atom
  orthogonal box = (0.02645 0.02645 0.02641) to (35.5328 35.5328 35.4736)
  2 by 2 by 1 MPI processor grid
  reading bonds ...
  3000 bonds
  reading angles ...
  1500 angles
Finding 1-2 1-3 1-4 neighbors ...
  special bond factors lj:    0        0        0       
  special bond factors coul:  0        0        0       
     2 = max # of 1-2 neighbors
     1 = max # of 1-3 neighbors
     1 = max # of 1-4 neighbors
     2 = max # of special neighbors
  special bonds CPU = 0.000 seconds
  read_data CPU = 0.016 seconds

pair_coeff      * * 0.0     1.0
pair_coeff      1 1 0.15535 3.166
pair_modify     tail yes
kspace_style    pppm 1.0e-6

dihedral_style  none
improper_style  none

bond_coeff      1 1000.00 1.000
angle_coeff     1 100.0 109.47

neighbor        2.0 bin
timestep        2.0
neigh_modify    every 1 delay 2 check yes

fix             1 all shake 0.0001 20 0 b 1 a 1
Finding SHAKE clusters ...
       0 = # of size 2 clusters
       0 = # of size 3 clusters
       0 = # of size 4 clusters
    1500 = # of frozen angles
  find clusters CPU = 0.000 seconds
fix             2 all nvt temp 300.0 300.0 100.0

velocity all create 300.0 6244325

thermo 100
run 500
PPPM initialization ...
  using 12-bit tables for long-range coulomb
  G vector (1/distance) = 0.27965195
  grid = 40 40 40
  stencil order = 5
  estimated absolute RMS force accuracy = 0.000394674
  estimated relative force accuracy = 1.188549e-06
  using double precision FFTW3
  3d grid and FFT values/proc = 34263 16000
Generated 0 of 1 mixed pair_coeff terms from geometric mixing rule
Neighbor list info ...
  update: every = 1 steps, delay = 2 steps, check = yes
  max neighbors/atom: 2000, page size: 100000
  master list distance cutoff = 14
  ghost atom cutoff = 14
  binsize = 7, bins = 6 6 6
  1 neighbor lists, perpetual/occasional/extra = 1 0 0
  (1) pair lj/cut/coul/long, perpetual
      attributes: half, newton on
      pair build: half/bin/newton
      stencil: half/bin/3d
      bin: standard
Per MPI rank memory allocation (min/avg/max) = 13.44 | 13.44 | 13.44 Mbytes
   Step          Temp          E_pair         E_mol          TotEng         Press     
         0   300           -16730.553      0             -14048.719     -230.00191    
       100   283.44728     -17046.902      0             -14513.039     -279.22996    
       200   298.75278     -16803.728      0             -14133.042      311.62539    
       300   296.64989     -16627.338      0             -13975.451      430.25288    
       400   303.83477     -16663.255      0             -13947.139      120.73687    
       500   298.11277     -16756.073      0             -14091.109      108.84597    
Loop time of 3.9507 on 4 procs for 500 steps with 4500 atoms

Performance: 21.870 ns/day, 1.097 hours/ns, 126.560 timesteps/s, 569.520 katom-step/s
99.3% CPU use with 4 MPI tasks x 1 OpenMP threads

MPI task timing breakdown:
Section |  min time  |  avg time  |  max time  |%varavg| %total
---------------------------------------------------------------
Pair    | 2.5287     | 2.5939     | 2.7076     |   4.2 | 65.66
Bond    | 0.00020378 | 0.00027802 | 0.00032805 |   0.0 |  0.01
Kspace  | 0.74334    | 0.85387    | 0.91638    |   7.2 | 21.61
Neigh   | 0.36345    | 0.36351    | 0.36358    |   0.0 |  9.20
Comm    | 0.057605   | 0.060823   | 0.063585   |   1.0 |  1.54
Output  | 0.00010793 | 0.00011763 | 0.00014572 |   0.0 |  0.00
Modify  | 0.06858    | 0.068728   | 0.068829   |   0.0 |  1.74
Other   |            | 0.00947    |            |       |  0.24

Nlocal:           1125 ave        1133 max        1114 min
Histogram: 1 0 0 0 0 0 2 0 0 1
Nghost:        12240.5 ave       12297 max       12195 min
Histogram: 2 0 0 0 0 0 0 1 0 1
Neighs:         650375 ave      671795 max      631470 min
Histogram: 1 0 0 1 0 1 0 0 0 1

Total # of neighbors = 2601500
Ave neighs/atom = 578.11111
Ave special neighs/atom = 2
Neighbor list builds = 45
Dangerous builds = 0

reset_timestep 0

group           ogroup type 1
1500 atoms in group ogroup
group           hgroup type 2
3000 atoms in group hgroup
variable        nmol equal count(ogroup)

# water oxygen atoms are both hydrogen bond donor and acceptor
compute         hb       all      hbond/local 3.3 30.0 ogroup ogroup hgroup dist hdist angle ehb

# output all hydrogen bonds. each line contains: hydrogen-ID donor-ID acceptor-ID r_DA r_HA theta_HDA e_hb
#dump            hb       all      local 100 hbonds.dump c_hb[*]
#dump_modify     hb label "HBONDS" colname 1 Hydrogen colname 2 "   Donor " colname 3 Acceptor #                   colname 4 " r_DA  " colname 5 "  r_HA  " colname 6 "  theta " colname 7 "  e_hb"  #                   format line "%20.0f %8.0f %8.0f %8.3f %8.3f %8.3f %8.3f"

# for the number of hydrogen bonds per molecule we must multiply by 2
# since water oxygens are in equal parts hydrogen bond donor and acceptor
variable        nhb_mol equal 2.0*c_hb/${nmol}
variable        nhb_mol equal 2.0*c_hb/1500
# get average values for distances, angles and strength for the current step
compute         avg      all      reduce ave c_hb[4] c_hb[5] c_hb[6] c_hb[7] inputs local
# get running average of those values
fix             ave      all      ave/time 100 1 100 v_nhb_mol c_avg[1] c_avg[2] c_avg[3] c_avg[4] ave running

# get histogram of hydrogen bond distance
fix       dhist all ave/histo 100 10 1000 2.3 3.3 30 c_hb[4] file hbond_histo_dist.dat mode vector kind local
# get histogram of hydrogen bond angle
fix       ahist all ave/histo 100 10 1000 0.0 30.0 30 c_hb[6] file hbond_histo_angle.dat mode vector kind local
# get histogram of hydrogen bond strength
fix       ahist all ave/histo 100 10 1000 -7.5 1.0 30 c_hb[7] file hbond_histo_eng.dat mode vector kind local

# output computed global data as thermo output first for step then averaged
thermo_style    custom step temp press v_nhb_mol c_avg[*] f_ave[*]
thermo_modify   colname 4 "n_HB/mol" colname 5 "r_DA " colname 6 "r_HA " colname 7 "theta_HDA" colname 8 "e_HB "                 colname 9 "<n_HB/mol>" colname 10 "<r_DA> " colname 11 "<r_HA> " colname 12 "<theta_HDA>" colname 13 "<e_HB> "

thermo          100

# dump viz all image 100 hbond-*.png element type size 600 600 zoom 1.331 shiny 0.2 ssao yes 348276 0.6 #           fsaa yes bond atom 0.35 view 70 20 box yes 0.025 compute hb const -0.5 0.2
# dump_modify viz pad 6 boxcolor cadetblue backcolor darkgray backcolor2 silver element O H #            adiam 1 0.5 adiam 2 0.4 ccolor hb yellow ctrans hb 1.0

run 1000
PPPM initialization ...
  using 12-bit tables for long-range coulomb
  G vector (1/distance) = 0.27965195
  grid = 40 40 40
  stencil order = 5
  estimated absolute RMS force accuracy = 0.000394674
  estimated relative force accuracy = 1.188549e-06
  using double precision FFTW3
  3d grid and FFT values/proc = 34263 16000
Generated 0 of 1 mixed pair_coeff terms from geometric mixing rule
Neighbor list info ...
  update: every = 1 steps, delay = 2 steps, check = yes
  max neighbors/atom: 2000, page size: 100000
  master list distance cutoff = 14
  ghost atom cutoff = 14
  binsize = 7, bins = 6 6 6
  2 neighbor lists, perpetual/occasional/extra = 1 1 0
  (1) pair lj/cut/coul/long, perpetual
      attributes: half, newton on
      pair build: half/bin/newton
      stencil: half/bin/3d
      bin: standard
  (2) compute hbond/local, occasional
      attributes: full, newton on
      pair build: full/bin
      stencil: full/bin/3d
      bin: standard
Per MPI rank memory allocation (min/avg/max) = 20.52 | 20.52 | 20.53 Mbytes
   Step          Temp          Press         n_HB/mol        r_DA           r_HA         theta_HDA        e_HB         <n_HB/mol>      <r_DA>         <r_HA>       <theta_HDA>      <e_HB>     
         0   298.11277      108.95426      3.464          2.8294684      1.8775537      12.882778     -5.5070239      3.464          2.8294684      1.8775537      12.882778     -5.5070239    
       100   306.24838      314.88456      3.4613333      2.8271572      1.8749351      12.777749     -5.5205802      3.4626667      2.8283128      1.8762444      12.830264     -5.513802     
       200   298.14181      162.3911       3.468          2.8347217      1.8842173      13.088124     -5.4579185      3.4644444      2.8304491      1.878902       12.916217     -5.4951742    
       300   297.83568     -51.325211      3.4506667      2.8334899      1.8822674      12.988465     -5.4870946      3.461          2.8312093      1.8797434      12.934279     -5.4931543    
       400   295.77986      1259.2643      3.4426667      2.8238973      1.8729633      13.054753     -5.4746861      3.4573333      2.8297469      1.8783874      12.958374     -5.4894607    
       500   297.06087     -1.1526544      3.4573333      2.8311673      1.8797019      12.959723     -5.4918711      3.4573333      2.8299836      1.8786065      12.958599     -5.4898624    
       600   297.83598      422.92751      3.4826667      2.8308553      1.8800003      13.035224     -5.4721684      3.4609524      2.8301081      1.8788056      12.969545     -5.4873347    
       700   301.83466      15.557696      3.452          2.8319844      1.8808721      12.962172     -5.4711781      3.4598333      2.8303427      1.8790639      12.968623     -5.4853151    
       800   298.67352     -726.83277      3.4933333      2.8384211      1.8861774      12.836367     -5.514328       3.4635556      2.8312403      1.8798543      12.953928     -5.4885388    
       900   311.32558     -378.2327       3.508          2.8350065      1.8829078      12.828427     -5.5146626      3.468          2.8316169      1.8801596      12.941378     -5.4911511    
      1000   305.48016     -118.89147      3.4866667      2.8337025      1.8832568      13.057575     -5.4718035      3.469697       2.8318065      1.8804412      12.951942     -5.4893923    
Loop time of 8.28881 on 4 procs for 1000 steps with 4500 atoms

Performance: 20.847 ns/day, 1.151 hours/ns, 120.645 timesteps/s, 542.901 katom-step/s
99.3% CPU use with 4 MPI tasks x 1 OpenMP threads

MPI task timing breakdown:
Section |  min time  |  avg time  |  max time  |%varavg| %total
---------------------------------------------------------------
Pair    | 5.1983     | 5.2896     | 5.4507     |   4.4 | 63.82
Bond    | 0.00047298 | 0.00058471 | 0.00072388 |   0.0 |  0.01
Kspace  | 1.4429     | 1.6008     | 1.6892     |   7.9 | 19.31
Neigh   | 0.77696    | 0.77718    | 0.77751    |   0.0 |  9.38
Comm    | 0.11482    | 0.11798    | 0.12114    |   0.8 |  1.42
Output  | 0.035056   | 0.035945   | 0.036434   |   0.3 |  0.43
Modify  | 0.44741    | 0.44793    | 0.44881    |   0.1 |  5.40
Other   |            | 0.01875    |            |       |  0.23

Nlocal:           1125 ave        1148 max        1109 min
Histogram: 2 0 0 0 0 1 0 0 0 1
Nghost:          12267 ave       12310 max       12227 min
Histogram: 1 0 0 1 0 1 0 0 0 1
Neighs:         650383 ave      675988 max      629110 min
Histogram: 1 0 0 1 1 0 0 0 0 1
FullNghs:  1.30078e+06 ave 1.33156e+06 max  1.2768e+06 min
Histogram: 1 1 0 0 0 1 0 0 0 1

Total # of neighbors = 5203130
Ave neighs/atom = 1156.2511
Ave special neighs/atom = 2
Neighbor list builds = 93
Dangerous builds = 0
Total wall time: 0:00:12
