LAMMPS (10 Sep 2025 - Development - patch_22Jul2025-893-g9e0febcf48-modified)
  using 1 OpenMP thread(s) per MPI task
# sample LAMMPS input script for viscosity of 2d LJ liquid
# NEMD via fix deform and fix nvt/sllod

# settings

variable	x equal 20
variable	y equal 20

variable	rho equal 0.6
variable        t equal 1.0
variable	rc equal 2.5

variable	srate equal 2.7 # velocity of top edge

# problem setup

units		lj
dimension	2
atom_style	atomic
neigh_modify	delay 0 every 1

# problem setup

lattice         sq2 ${rho}
lattice         sq2 0.6
Lattice spacing in x,y,z = 1.8257419 1.8257419 1.8257419
region          simbox prism 0 $x 0 $y -0.1 0.1 0.0 0.0 0.0
region          simbox prism 0 20 0 $y -0.1 0.1 0.0 0.0 0.0
region          simbox prism 0 20 0 20 -0.1 0.1 0.0 0.0 0.0
create_box      1 simbox
Created triclinic box = (0 0 -0.18257419) to (36.514837 36.514837 0.18257419) with tilt (0 0 0)
  1 by 1 by 1 MPI processor grid
create_atoms    1 box
Created 800 atoms
  using lattice units in triclinic box = (0 0 -0.18257419) to (36.514837 36.514837 0.18257419) with tilt (0 0 0)
  create_atoms CPU = 0.000 seconds

pair_style      lj/cut ${rc}
pair_style      lj/cut 2.5
pair_coeff      * * 1 1

mass            * 1.0
velocity        all create $t 97287
velocity        all create 1 97287

fix             1 all nve
fix	        2 all langevin $t $t 0.1 498094
fix	        2 all langevin 1 $t 0.1 498094
fix	        2 all langevin 1 1 0.1 498094
fix	        3 all enforce2d

# equilibration run

thermo          1000
run	        5000
Generated 0 of 0 mixed pair_coeff terms from geometric mixing rule
Neighbor list info ...
  update: every = 1 steps, delay = 0 steps, check = yes
  max neighbors/atom: 2000, page size: 100000
  master list distance cutoff = 2.8
  ghost atom cutoff = 2.8
  binsize = 1.4, bins = 27 27 1
  1 neighbor lists, perpetual/occasional/extra = 1 0 0
  (1) pair lj/cut, perpetual
      attributes: half, newton on
      pair build: half/bin/atomonly/newton/tri
      stencil: half/bin/2d/tri
      bin: standard
Per MPI rank memory allocation (min/avg/max) = 3.058 | 3.058 | 3.058 Mbytes
   Step          Temp          E_pair         E_mol          TotEng         Press     
         0   1             -1.56492        0             -0.56617       -1.535262     
      1000   0.95906897    -1.571142       0             -0.61327189     0.82593948   
      2000   1.0164992     -1.6006146      0             -0.58538603     0.88642098   
      3000   1.0429232     -1.5801639      0             -0.53854441     1.157286     
      4000   1.0955206     -1.6156387      0             -0.52148756     0.94410567   
      5000   0.94117664    -1.6155061      0             -0.67550592     0.7935389    
Loop time of 1.64707 on 1 procs for 5000 steps with 800 atoms

Performance: 1311417.220 tau/day, 3035.688 timesteps/s, 2.429 Matom-step/s
99.4% CPU use with 1 MPI tasks x 1 OpenMP threads

MPI task timing breakdown:
Section |  min time  |  avg time  |  max time  |%varavg| %total
---------------------------------------------------------------
Pair    | 0.9193     | 0.9193     | 0.9193     |   0.0 | 55.81
Neigh   | 0.23109    | 0.23109    | 0.23109    |   0.0 | 14.03
Comm    | 0.036895   | 0.036895   | 0.036895   |   0.0 |  2.24
Output  | 0.00012689 | 0.00012689 | 0.00012689 |   0.0 |  0.01
Modify  | 0.41816    | 0.41816    | 0.41816    |   0.0 | 25.39
Other   |            | 0.0415     |            |       |  2.52

Nlocal:            800 ave         800 max         800 min
Histogram: 1 0 0 0 0 0 0 0 0 0
Nghost:            256 ave         256 max         256 min
Histogram: 1 0 0 0 0 0 0 0 0 0
Neighs:           5583 ave        5583 max        5583 min
Histogram: 1 0 0 0 0 0 0 0 0 0

Total # of neighbors = 5583
Ave neighs/atom = 6.97875
Neighbor list builds = 551
Dangerous builds = 0

unfix  	        1
unfix		2

# turn on NEMD shear and equilibrate some more

velocity	all scale $t
velocity	all scale 1

# shear rate defined relative to perpendicular dimension

variable	xyrate equal ${srate}/ly
variable	xyrate equal 2.7/ly

fix		1 all nvt/sllod temp $t $t 0.1
fix		1 all nvt/sllod temp 1 $t 0.1
fix		1 all nvt/sllod temp 1 1 0.1
fix		2 all deform 0 xy erate ${xyrate} remap v
fix		2 all deform 0 xy erate 0.0739425452631974 remap v

compute         layers all chunk/atom bin/1d y center 0.05 units reduced
fix		4 all ave/chunk 20 250 5000 layers vx file profile.nemd.2d

compute		usual all temp
compute		tilt all temp/deform

thermo          1000
thermo_style	custom step temp c_usual epair etotal press pxy
thermo_modify	temp tilt
run		50000
Generated 0 of 0 mixed pair_coeff terms from geometric mixing rule
fix nvt/sllod applying velocity profile kick.
Per MPI rank memory allocation (min/avg/max) = 3.574 | 3.574 | 3.574 Mbytes
   Step          Temp         c_usual         E_pair         TotEng         Press           Pxy      
      5000   1              2.2047979     -1.6155061     -0.61675609     0.8287888     -0.020940913  
      6000   0.95507793     2.2097546     -1.5765024     -0.62261835     0.97563333    -0.12605042   
      7000   1.0216522      2.2649123     -1.6036351     -0.58326001     0.93935584     0.010679105  
      8000   1.0621265      2.3103162     -1.5864502     -0.52565137     1.2188525      0.1151442    
      9000   1.0379728      2.3169351     -1.5654978     -0.52882249     1.097254      -0.15573184   
     10000   1.0711426      2.3298331     -1.5919447     -0.52214097     0.88994755    -0.031460603  
     11000   1.0778729      2.3326115     -1.5762723     -0.49974667     1.1433046     -0.085490718  
     12000   0.97786173     2.2481673     -1.6027381     -0.62609869     0.82930551    -0.1863787    
     13000   1.0417731      2.2796445     -1.5998618     -0.55939096     0.94908445    -0.061442181  
     14000   0.98970596     2.2163044     -1.6188819     -0.63041307     0.85889947    -0.13284058   
     15000   0.97921539     2.2045884     -1.5860314     -0.60804004     1.0166504     -0.072700457  
     16000   1.0008333      2.1688424     -1.5750749     -0.57549271     1.1311765     -0.062898337  
     17000   1.0075582      2.2567192     -1.6148903     -0.60859157     0.81347695    -0.13714776   
     18000   0.9596422      2.1794402     -1.5765275     -0.61808485     0.94509816    -0.0057791375 
     19000   1.0359352      2.2811145     -1.5930391     -0.55839873     1.0387073     -0.067611329  
     20000   1.0379398      2.2585684     -1.6064396     -0.56979715     1.0033747      0.057519106  
     21000   1.0016387      2.2641839     -1.5714319     -0.57104522     1.0311239     -0.055023824  
     22000   1.0153675      2.2367746     -1.5748053     -0.56070697     1.0829366      0.037171218  
     23000   0.93435555     2.1365884     -1.5995333     -0.66634571     1.0362535      0.007737484  
     24000   1.0319282      2.2178846     -1.5892234     -0.55858518     0.91620034     0.086767449  
     25000   1.0380636      2.2379327     -1.5744053     -0.53763923     1.1777949     -0.10513971   
     26000   0.98418206     2.1822338     -1.6081883     -0.62523652     0.98024504    -0.13572847   
     27000   1.0403842      2.1799511     -1.6008564     -0.56177265     1.0170316     -0.051911232  
     28000   0.94604957     2.1270057     -1.5938249     -0.64895794     0.8543833      0.027020906  
     29000   1.0220854      2.1994116     -1.5975172     -0.57670944     0.98719224     0.041921988  
     30000   1.0512939      2.2059065     -1.5981292     -0.5481495      0.89207508    -0.19039305   
     31000   1.0330274      2.1845053     -1.610982      -0.57924583     0.88228914    -0.072775255  
     32000   1.0366377      2.1637669     -1.6149343     -0.57959242     1.0048181     -0.088680058  
     33000   0.97920133     2.1252236     -1.6006863     -0.62270892     0.91942532     0.033916922  
     34000   1.0236934      2.1599929     -1.587415      -0.56500127     0.86578735     0.073712237  
     35000   1.012147       2.1789966     -1.6260649     -0.61518306     0.87507426    -0.13076713   
     36000   0.99280525     2.1498867     -1.5746586     -0.58309439     1.15217       -0.15765691   
     37000   0.98271132     2.1260413     -1.600369      -0.6188861      0.89551638    -0.20475773   
     38000   0.95839772     2.1052508     -1.561824      -0.60462431     0.93295176    -0.026632209  
     39000   0.99846209     2.1379782     -1.60168       -0.60446594     0.93130016    -0.11079077   
     40000   1.0527793      2.1591731     -1.6405842     -0.58912086     0.91038803    -0.14758032   
     41000   1.0154753      2.1184711     -1.6006918     -0.58648588     1.0274764      0.044925842  
     42000   0.97010001     2.0968463     -1.6047336     -0.63584624     0.98750957    -0.22262761   
     43000   0.9867043      2.1368986     -1.5837313     -0.59826041     1.1749684     -0.18325187   
     44000   1.0194047      2.140564      -1.5765237     -0.55839322     1.2213233     -0.20881563   
     45000   0.99998826     2.1385747     -1.6036306     -0.60489228     0.85546974    -0.31687161   
     46000   0.99862625     2.1058472     -1.5770743     -0.57969634     1.1723591     -0.062216438  
     47000   1.0378231      2.1898198     -1.5988226     -0.56229679     0.89020297    -0.0077057466 
     48000   0.97756848     2.0412813     -1.5508361     -0.57448954     1.237255      -0.25158796   
     49000   1.0394586      2.1506085     -1.5997402     -0.56158098     0.90483586     0.077929671  
     50000   1.0230127      2.1312834     -1.6150689     -0.5933349      0.92243746    -0.038885506  
     51000   0.94169569     2.0756381     -1.564958      -0.62443944     1.0579049     -0.11352733   
     52000   1.0187813      2.2075526     -1.5643386     -0.54683076     1.133988      -0.077568579  
     53000   0.98760268     2.1716148     -1.6135291     -0.62716093     0.88581222    -0.042669516  
     54000   0.97880518     2.1598996     -1.5823446     -0.60476297     0.89203429     0.0073980902 
     55000   1.0241458      2.194505      -1.6017598     -0.57889422     0.96583696    -0.1446588    
Loop time of 27.1361 on 1 procs for 50000 steps with 800 atoms

Performance: 795987.685 tau/day, 1842.564 timesteps/s, 1.474 Matom-step/s
98.8% CPU use with 1 MPI tasks x 1 OpenMP threads

MPI task timing breakdown:
Section |  min time  |  avg time  |  max time  |%varavg| %total
---------------------------------------------------------------
Pair    | 9.8703     | 9.8703     | 9.8703     |   0.0 | 36.37
Neigh   | 5.7142     | 5.7142     | 5.7142     |   0.0 | 21.06
Comm    | 0.61018    | 0.61018    | 0.61018    |   0.0 |  2.25
Output  | 0.0049315  | 0.0049315  | 0.0049315  |   0.0 |  0.02
Modify  | 10.335     | 10.335     | 10.335     |   0.0 | 38.09
Other   |            | 0.601      |            |       |  2.21

Nlocal:            800 ave         800 max         800 min
Histogram: 1 0 0 0 0 0 0 0 0 0
Nghost:            287 ave         287 max         287 min
Histogram: 1 0 0 0 0 0 0 0 0 0
Neighs:           5594 ave        5594 max        5594 min
Histogram: 1 0 0 0 0 0 0 0 0 0

Total # of neighbors = 5594
Ave neighs/atom = 6.9925
Neighbor list builds = 12288
Dangerous builds = 0

# data gathering run

variable	visc equal -pxy/(v_srate/ly)
fix		vave all ave/time 10 100 1000 v_visc ave running start 56000

thermo_style	custom step temp press pxy v_visc f_vave
WARNING: New thermo_style command, previous thermo_modify settings will be lost (src/output.cpp:1079)
thermo_modify	temp tilt

# only need to run for 5400 steps to make a good 100-frame movie
# set 54K steps above in equil and 5400 here simply to make good movie
# 54K and 5400 are multiples of box-swap periodicity = 2700 steps

#dump	        1 all custom 50 dump.nemd.2d id type x y z vx

#dump		2 all image 50 image.*.jpg vx type zoom 1.2 adiam 1.2
#dump_modify	2 pad 5 amap 0.0 ${srate} ca 0.0 2 min blue max red

run		50000
Generated 0 of 0 mixed pair_coeff terms from geometric mixing rule
Per MPI rank memory allocation (min/avg/max) = 3.958 | 3.958 | 3.958 Mbytes
   Step          Temp          Press           Pxy           v_visc         f_vave    
     55000   1.0241458      0.96583696    -0.1446588      1.9563675      0            
     56000   1.0010602      1.1004362     -0.15019624     2.031256       1.0712042    
     57000   0.9781104      1.1634776     -0.11894791     1.6086532      1.0435621    
     58000   0.99963356     1.037137      -0.14005561     1.894114       1.1264463    
     59000   1.0044299      0.94734445    -0.052896449    0.71537231     0.97666978   
     60000   0.98724324     0.88355949    -0.053515653    0.72374642     0.90563641   
     61000   1.040232       0.89355015    -0.15946067     2.1565483      0.9264983    
     62000   0.97813668     0.92639949    -0.19999132     2.7046854      0.93824827   
     63000   1.0380196      1.0906025     -0.035583441    0.48123094     0.99513462   
     64000   1.01217        1.0740431      0.093159653   -1.2598924      1.018764     
     65000   0.98046033     1.0744182     -0.091436157    1.2365838      0.99774416   
     66000   1.0409897      0.96728947    -0.047863615    0.64730819     1.0108619    
     67000   0.99647677     1.2131807     -0.12080403     1.6337554      0.98745156   
     68000   0.98296157     0.90473777    -0.041617613    0.56283717     0.99447311   
     69000   1.0136333      1.1689568     -0.017564267    0.2375394      0.99521681   
     70000   1.0323216      1.2963573     -0.10882096     1.4716962      0.97705559   
     71000   1.0155395      0.8750333      0.02004414    -0.27107723     0.97754069   
     72000   0.99149143     1.1238        -0.20041342     2.7103938      0.979994     
     73000   0.96900197     1.0292636     -0.078322318    1.0592321      0.97244089   
     74000   1.062385       1.2361527     -0.1099651      1.4871695      0.96910464   
     75000   1.0328335      0.80517903    -0.01539051     0.20814147     0.97666323   
     76000   0.98973109     1.0143277     -0.043547269    0.58893387     0.97263863   
     77000   1.065688       0.92421618    -0.085939799    1.162251       0.96762614   
     78000   1.0508177      0.97513422    -0.083977598    1.1357142      0.97514139   
     79000   0.9736741      0.93945843    -0.14452485     1.954556       0.9757138    
     80000   0.96569145     0.98455624    -0.1336974      1.8081255      0.96804009   
     81000   0.97461853     1.0133035      0.025835508   -0.34939976     0.96740827   
     82000   0.9304827      1.0972395     -0.16088994     2.1758778      0.95659816   
     83000   1.0035397      1.110703      -0.37958259     5.1334801      0.95656333   
     84000   0.90665765     0.9176408     -0.087427791    1.1823746      0.96450888   
     85000   1.0462239      1.1325529     -0.078062729    1.0557214      0.97104199   
     86000   1.0146321      1.1672369     -0.16255056     2.198336       0.97896315   
     87000   0.96363728     1.0181615     -0.05705412     0.7716007      0.97920846   
     88000   1.0575441      0.94272633    -0.16751243     2.2654404      0.97464992   
     89000   1.0015017      1.0386405     -0.1443581      1.9523009      0.99116768   
     90000   1.0151551      1.0383734     -0.036115337    0.48842432     0.996551     
     91000   0.98705518     0.84863277     0.018715301   -0.25310599     0.98756013   
     92000   0.97031349     0.94324447    -0.14765416     1.9968769      0.98972977   
     93000   0.9950971      0.98600431     0.010007081   -0.1353359      0.99684022   
     94000   0.93648195     0.79166236    -0.049609064    0.67091366     0.99942919   
     95000   1.0002369      0.73554275    -0.046416578    0.62773844     0.99292496   
     96000   0.98412949     1.0655853     -0.054522481    0.73736279     0.9909175    
     97000   1.1263813      1.2556261     -0.17428618     2.3570487      0.99255174   
     98000   0.98122539     1.001769      -0.029187585    0.39473331     0.98353227   
     99000   1.0149998      1.0862694     -0.23986771     3.2439743      0.97772155   
    100000   0.98063446     1.0754457     -0.11566951     1.564316       0.97743951   
    101000   1.0213549      0.94147318     0.036276873   -0.49060893     0.97338505   
    102000   1.0120262      1.0901234     -0.10566823     1.4290586      0.97178966   
    103000   0.99153269     0.87470745    -0.09993404     1.3515093      0.97002021   
    104000   1.0738062      0.90763118    -0.12576295     1.7008199      0.97018024   
    105000   0.97212072     0.84770482    -0.19888062     2.6896642      0.97989223   
Loop time of 28.4994 on 1 procs for 50000 steps with 800 atoms

Performance: 757911.184 tau/day, 1754.424 timesteps/s, 1.404 Matom-step/s
99.0% CPU use with 1 MPI tasks x 1 OpenMP threads

MPI task timing breakdown:
Section |  min time  |  avg time  |  max time  |%varavg| %total
---------------------------------------------------------------
Pair    | 10.407     | 10.407     | 10.407     |   0.0 | 36.52
Neigh   | 5.8701     | 5.8701     | 5.8701     |   0.0 | 20.60
Comm    | 0.62627    | 0.62627    | 0.62627    |   0.0 |  2.20
Output  | 0.0033032  | 0.0033032  | 0.0033032  |   0.0 |  0.01
Modify  | 10.964     | 10.964     | 10.964     |   0.0 | 38.47
Other   |            | 0.6279     |            |       |  2.20

Nlocal:            800 ave         800 max         800 min
Histogram: 1 0 0 0 0 0 0 0 0 0
Nghost:            259 ave         259 max         259 min
Histogram: 1 0 0 0 0 0 0 0 0 0
Neighs:           5594 ave        5594 max        5594 min
Histogram: 1 0 0 0 0 0 0 0 0 0

Total # of neighbors = 5594
Ave neighs/atom = 6.9925
Neighbor list builds = 12260
Dangerous builds = 0
Total wall time: 0:00:57
