LAMMPS (10 Dec 2025 - Development - patch_10Dec2025-120-ga51f9ba0e7-modified)
OMP_NUM_THREADS environment is not set. Defaulting to 1 thread.
  using 1 OpenMP thread(s) per MPI task
# two monomer nylon example
# reaction produces a condensed water molecule

units real

boundary p p p

atom_style full

kspace_style pppm 1.0e-4

pair_style lj/class2/coul/long 8.5

angle_style class2

bond_style class2

dihedral_style class2

improper_style class2

special_bonds lj/coul 0 0 1
pair_modify tail yes mix sixthpower

read_data tiny_nylon.data   extra/bond/per/atom 5    extra/angle/per/atom 15   extra/dihedral/per/atom 15   extra/improper/per/atom 25   extra/special/per/atom 25
Reading data file ...
  orthogonal box = (-25 -25 -25) to (25 25 25)
  1 by 2 by 2 MPI processor grid
  reading atom labelmap ...
  reading bond labelmap ...
  reading angle labelmap ...
  reading dihedral labelmap ...
  reading improper labelmap ...
  reading atoms ...
  44 atoms
  reading velocities ...
  44 velocities
  scanning bonds ...
  9 = max bonds/atom
  scanning angles ...
  21 = max angles/atom
  scanning dihedrals ...
  29 = max dihedrals/atom
  scanning impropers ...
  29 = max impropers/atom
  orthogonal box = (-25 -25 -25) to (25 25 25)
  1 by 2 by 2 MPI processor grid
  reading bonds ...
  42 bonds
  reading angles ...
  74 angles
  reading dihedrals ...
  100 dihedrals
  reading impropers ...
  16 impropers
Finding 1-2 1-3 1-4 neighbors ...
  special bond factors lj:    0        0        1       
  special bond factors coul:  0        0        1       
     4 = max # of 1-2 neighbors
     6 = max # of 1-3 neighbors
    35 = max # of special neighbors
  special bonds CPU = 0.001 seconds
  read_data CPU = 0.014 seconds

variable runsteps equal 1000
variable prob1 equal step/v_runsteps*2+0.1
variable prob2 equal (step/v_runsteps)>0.5

velocity all create 300.0 4928459 dist gaussian

molecule mol1 rxn1_stp1_unreacted.molecule_template
Read molecule template mol1:
this is a molecule template for: initial nylon crosslink, pre-reacting
  1 molecules
  0 fragments
  0 bodies
  18 atoms with max type 8
  16 bonds with max type 8
  25 angles with max type 25
  23 dihedrals with max type 33
  2 impropers with max type 3
molecule mol2 rxn1_stp1_reacted.molecule_template
Read molecule template mol2:
this is a molecule template for: initial nylon crosslink, post-reacting
  1 molecules
  0 fragments
  0 bodies
  18 atoms with max type 9
  17 bonds with max type 11
  31 angles with max type 24
  39 dihedrals with max type 30
  0 impropers with max type 0
molecule mol3 rxn1_stp2_unreacted.molecule_template
Read molecule template mol3:
this is a molecule template for: water condensation, pre-reacting
  1 molecules
  0 fragments
  0 bodies
  15 atoms with max type 9
  14 bonds with max type 11
  25 angles with max type 24
  30 dihedrals with max type 30
  0 impropers with max type 0
molecule mol4 rxn1_stp2_reacted.molecule_template
Read molecule template mol4:
this is a molecule template for: water condensation, post-reacting
  1 molecules
  0 fragments
  0 bodies
  15 atoms with max type 11
  13 bonds with max type 13
  19 angles with max type 26
  16 dihedrals with max type 29
  2 impropers with max type 5

thermo 50

# dump 1 all xyz 1 test_vis.xyz
# dump_modify 1 types labels

fix myrxns all bond/react stabilization yes statted_grp .03   react rxn1 all 1 0.0 5.0 mol1 mol2 rxn1_stp1_map prob v_prob1 1234   react rxn2 all 1 0.0 5.0 mol3 mol4 rxn1_stp2_map prob v_prob2 1234 rescale_charges yes
WARNING: Fix bond/react: Atom affected by reaction rxn1 is too close to template edge (src/REACTION/fix_bond_react.cpp:2630)
WARNING: Fix bond/react: Atom affected by reaction rxn2 is too close to template edge (src/REACTION/fix_bond_react.cpp:2630)
dynamic group bond_react_MASTER_group defined
dynamic group statted_grp_REACT defined

fix 1 statted_grp_REACT nvt temp 300 300 100

# optionally, you can customize behavior of reacting atoms,
# by using the internally-created 'bond_react_MASTER_group', like so:
fix 4 bond_react_MASTER_group temp/rescale 1 300 300 10 1

thermo_style custom step temp press density v_prob1 v_prob2 f_myrxns[*]
thermo_modify colname auto

# restart 100 restart1 restart2

run ${runsteps}
run 1000

CITE-CITE-CITE-CITE-CITE-CITE-CITE-CITE-CITE-CITE-CITE-CITE-CITE

Your simulation uses code contributions which should be cited:

- Type Label Framework: https://doi.org/10.1021/acs.jpcb.3c08419

@Article{Gissinger24,
 author = {Jacob R. Gissinger, Ilia Nikiforov, Yaser Afshar, Brendon Waters, Moon-ki Choi, Daniel S. Karls, Alexander Stukowski, Wonpil Im, Hendrik Heinz, Axel Kohlmeyer, and Ellad B. Tadmor},
 title = {Type Label Framework for Bonded Force Fields in LAMMPS},
 journal = {J. Phys. Chem. B},
 year =    2024,
 volume =  128,
 number =  13,
 pages =   {3282--3297}
}

- fix bond/react: https://reacter.org, https://doi.org/10.1016/j.polymer.2017.09.038, https://doi.org/10.1021/acs.macromol.0c02012, https://doi.org/10.1016/j.cpc.2024.109287

@Article{Gissinger17,
 author = {J. R. Gissinger and B. D. Jensen and K. E. Wise},
 title = {Modeling Chemical Reactions in Classical Molecular Dynamics Simulations},
 journal = {Polymer},
 year =    2017,
 volume =  128,
 pages =   {211--217}
}

@Article{Gissinger20,
 author = {J. R. Gissinger, B. D. Jensen, K. E. Wise},
 title = {{REACTER}: A Heuristic Method for Reactive Molecular Dynamics},
 journal = {Macromolecules},
 year =    2020,
 volume =  53,
 number =  22,
 pages =   {9953--9961}
}

@Article{Gissinger24,
 author = {J. R. Gissinger, B. D. Jensen, K. E. Wise},
 title = {Molecular Modeling of Reactive Systems with REACTER},
 journal = {Computer Physics Communications},
 year =    2024,
 volume =  304,
 number =  109287
}

CITE-CITE-CITE-CITE-CITE-CITE-CITE-CITE-CITE-CITE-CITE-CITE-CITE

PPPM initialization ...
  using 12-bit tables for long-range coulomb
  G vector (1/distance) = 0.23408048
  grid = 15 15 15
  stencil order = 5
  estimated absolute RMS force accuracy = 0.018627396
  estimated relative force accuracy = 5.6095851e-05
  using double precision KISS FFT
  3d grid and FFT values/proc = 3380 960
Generated 55 of 55 mixed pair_coeff terms from sixthpower/sixthpower mixing rule
Neighbor list info ...
  update: every = 1 steps, delay = 0 steps, check = yes
  max neighbors/atom: 2000, page size: 100000
  master list distance cutoff = 10.5
  ghost atom cutoff = 10.5
  binsize = 5.25, bins = 10 10 10
  2 neighbor lists, perpetual/occasional/extra = 1 1 0
  (1) pair lj/class2/coul/long, perpetual
      attributes: half, newton on
      pair build: half/bin/newton
      stencil: half/bin/3d
      bin: standard
  (2) fix bond/react, occasional, copy from (1)
      attributes: half, newton on
      pair build: copy
      stencil: none
      bin: none
Per MPI rank memory allocation (min/avg/max) = 33.49 | 33.72 | 34.28 Mbytes
   Step          Temp          Press         Density        v_prob1        v_prob2     f_myrxns:rxn1  f_myrxns:rxn2 
         0   300            357.25587      0.0034851739   0.1            0              0              0            
        50   309.04364     -44.893527      0.0034851739   0.2            0              1              0            
       100   589.37333     -67.071528      0.0034851739   0.3            0              1              0            
       150   618.85066     -27.62431       0.0034851739   0.4            0              1              0            
       200   590.83633     -8.4502898      0.0034851739   0.5            0              1              0            
       250   424.21214     -18.805456      0.0034851739   0.6            0              1              0            
       300   379.29253     -53.636603      0.0034851739   0.7            0              1              0            
       350   322.82257      25.689105      0.0034851739   0.8            0              1              0            
       400   288.58223      5.1539476      0.0034851739   0.9            0              1              0            
       450   242.08086     -41.170718      0.0034851739   1              0              1              0            
       500   292.10549     -51.176697      0.0034851739   1.1            0              1              0            
       550   215.25272      15.57191       0.0034851739   1.2            1              1              1            
       600   274.36725      17.873224      0.0034851739   1.3            1              1              1            
       650   284.3847      -25.412561      0.0034851739   1.4            1              1              1            
       700   339.44889      9.3842034      0.0034851739   1.5            1              1              1            
       750   309.58637      15.911362      0.0034851739   1.6            1              1              1            
       800   344.69627      30.869614      0.0034851739   1.7            1              1              1            
       850   303.19449     -13.292901      0.0034851739   1.8            1              1              1            
       900   282.21839      65.294443      0.0034851739   1.9            1              1              1            
       950   319.01904     -27.224062      0.0034851739   2              1              1              1            
      1000   284.0784       25.378691      0.0034851739   2.1            1              1              1            
Loop time of 0.218585 on 4 procs for 1000 steps with 44 atoms

Performance: 395.270 ns/day, 0.061 hours/ns, 4574.887 timesteps/s, 201.295 katom-step/s
91.6% CPU use with 4 MPI tasks x 1 OpenMP threads

MPI task timing breakdown:
Section |  min time  |  avg time  |  max time  |%varavg| %total
---------------------------------------------------------------
Pair    | 0.0016695  | 0.0056227  | 0.0095739  |   5.3 |  2.57
Bond    | 0.0016665  | 0.014093   | 0.033524   |  11.3 |  6.45
Kspace  | 0.12764    | 0.1489     | 0.16368    |   4.0 | 68.12
Neigh   | 0.00064261 | 0.0007357  | 0.00077083 |   0.0 |  0.34
Comm    | 0.0048789  | 0.0057607  | 0.0071     |   1.2 |  2.64
Output  | 0.00062878 | 0.00066602 | 0.00077775 |   0.0 |  0.30
Modify  | 0.034703   | 0.037091   | 0.03954    |   1.2 | 16.97
Other   |            | 0.00572    |            |       |  2.62

Nlocal:             11 ave          28 max           0 min
Histogram: 2 0 0 0 0 1 0 0 0 1
Nghost:             33 ave          44 max          16 min
Histogram: 1 0 0 0 1 0 0 0 0 2
Neighs:         214.75 ave         630 max           0 min
Histogram: 2 0 0 1 0 0 0 0 0 1

Total # of neighbors = 859
Ave neighs/atom = 19.522727
Ave special neighs/atom = 6.4090909
Neighbor list builds = 26
Dangerous builds = 0

# write_restart restart_longrun
# write_data restart_longrun.data nofix
Total wall time: 0:00:00
