LAMMPS (30 Mar 2026)
OMP_NUM_THREADS environment is not set. Defaulting to 1 thread.
  using 1 OpenMP thread(s) per MPI task
###############################################################################
# Magnetically actuated rod-based mechanical metamaterial
# Gabriel Alkuino (SyracuseU) - 2026/03/31
###############################################################################

units           lj
dimension       3
boundary        m m m
atom_style      hybrid bpm/sphere dipole
WARNING: Atom style hybrid defines both, per-type and per-atom masses; both must be set, but only per-atom masses will be used (src/atom_vec_hybrid.cpp:132)
atom_modify     map yes
newton          on off
comm_modify     vel yes cutoff 3.0
special_bonds   lj 0.0 1.0 1.0 coul 1.0 1.0 1.0

read_data       metamaterial.data
Reading data file ...
  orthogonal box = (-0.5 -0.5 -0.5) to (3.5 3.5 3.5)
  1 by 2 by 2 MPI processor grid
  reading atoms ...
  1360 atoms
  scanning bonds ...
  6 = max bonds/atom
  orthogonal box = (-0.5 -0.5 -0.5) to (3.5 3.5 3.5)
  1 by 2 by 2 MPI processor grid
  reading bonds ...
  1440 bonds
Finding 1-2 1-3 1-4 neighbors ...
  special bond factors lj:    0        1        1       
  special bond factors coul:  1        1        1       
     6 = max # of 1-2 neighbors
     6 = max # of special neighbors
  special bonds CPU = 0.000 seconds
  read_data CPU = 0.007 seconds
group           magnets type 2
64 atoms in group magnets
set             group all density 1.0
Setting atom values ...
  1360 settings made for density
set             group magnets density 10.
Setting atom values ...
  64 settings made for density

bond_style      bpm/rotational smooth no break no
bond_coeff      1 1.0 1.0 0.1 0.5  -1 -1 -1 -1  1e-3 1e-3 1e-3 1e-3

timestep        1e-4
thermo          1000
thermo_style    custom step ke pe ebond

compute         q all property/atom quatw quati quatj quatk
#dump            1 all custom 1000 atomDump id type x y z c_q[*] mux muy muz

fix             1 all nve/bpm/sphere update dipole

variable        bz equal 0.25*ramp(0,1)
fix             2 magnets efield 0.0 0.0 v_bz

run             100000

CITE-CITE-CITE-CITE-CITE-CITE-CITE-CITE-CITE-CITE-CITE-CITE-CITE

Your simulation uses code contributions which should be cited:

- BPM bond style: https://doi.org/10.1039/D3SM01373A

@Article{Clemmer2024,
 author =  {Clemmer, Joel T. and Monti, Joseph M. and Lechman, Jeremy B.},
 title =   {A soft departure from jamming: the compaction of deformable
            granular matter under high pressures},
 journal = {Soft Matter},
 year =    2024,
 volume =  20,
 number =  8,
 pages =   {1702--1718}
}

CITE-CITE-CITE-CITE-CITE-CITE-CITE-CITE-CITE-CITE-CITE-CITE-CITE

WARNING: No pairwise cutoff or binsize set. Atom sorting therefore disabled. (src/atom.cpp:2493)
Per MPI rank memory allocation (min/avg/max) = 12.56 | 12.56 | 12.56 Mbytes
   Step         KinEng         PotEng         E_bond    
         0   0              0              0            
      1000   1.818131e-08   3.9954529e-07  3.9954529e-07
      2000   1.1221283e-07  1.7721275e-06  1.7721275e-06
      3000   9.7197205e-08  4.3891052e-06  4.3891052e-06
      4000   2.8949374e-08  7.7912271e-06  7.7912271e-06
      5000   2.76937e-08    1.1655233e-05  1.1655233e-05
      6000   6.4948957e-08  1.6588851e-05  1.6588851e-05
      7000   1.3506509e-07  2.3084306e-05  2.3084306e-05
      8000   7.4993683e-08  3.0769355e-05  3.0769355e-05
      9000   2.4675106e-08  3.8568215e-05  3.8568215e-05
     10000   2.6092602e-08  4.6653013e-05  4.6653013e-05
     11000   7.9841027e-08  5.6258809e-05  5.6258809e-05
     12000   1.1845316e-07  6.7812746e-05  6.7812746e-05
     13000   4.7404996e-08  8.0130479e-05  8.0130479e-05
     14000   1.9744129e-08  9.1964471e-05  9.1964471e-05
     15000   2.8654685e-08  0.00010418675  0.00010418675
     16000   9.5646784e-08  0.00011849483  0.00011849483
     17000   1.0045547e-07  0.00013481098  0.00013481098
     18000   3.9969373e-08  0.00015110406  0.00015110406
     19000   2.728677e-08   0.00016652371  0.00016652371
     20000   5.2283602e-08  0.00018292658  0.00018292658
     21000   1.1511641e-07  0.00020195712  0.00020195712
     22000   8.6302982e-08  0.0002224543   0.0002224543 
     23000   4.3969334e-08  0.00024199143  0.00024199143
     24000   4.4140061e-08  0.00026084047  0.00026084047
     25000   8.8512583e-08  0.00028155378  0.00028155378
     26000   1.2150111e-07  0.0003049627   0.0003049627 
     27000   6.8267126e-08  0.00032882643  0.00032882643
     28000   3.5503857e-08  0.00035114039  0.00035114039
     29000   4.0561679e-08  0.00037332582  0.00037332582
     30000   9.0419902e-08  0.00039796265  0.00039796265
     31000   9.9554058e-08  0.000424897    0.000424897  
     32000   5.954103e-08   0.00045143674  0.00045143674
     33000   4.4330945e-08  0.00047645838  0.00047645838
     34000   5.7091033e-08  0.00050213466  0.00050213466
     35000   9.3515775e-08  0.00053054329  0.00053054329
     36000   7.0815607e-08  0.00056038816  0.00056038816
     37000   3.4520425e-08  0.0005888085   0.0005888085 
     38000   2.8747456e-08  0.00061590447  0.00061590447
     39000   6.6373597e-08  0.00064466656  0.00064466656
     40000   1.0007722e-07  0.00067642147  0.00067642147
     41000   7.3525934e-08  0.00070865585  0.00070865585
     42000   4.7181969e-08  0.00073884579  0.00073884579
     43000   4.815109e-08   0.00076841523  0.00076841523
     44000   8.3298448e-08  0.00080036768  0.00080036768
     45000   8.6115089e-08  0.00083455776  0.00083455776
     46000   6.0535977e-08  0.00086790955  0.00086790955
     47000   5.2209436e-08  0.0008993769   0.0008993769 
     48000   7.586646e-08   0.00093151326  0.00093151326
     49000   1.0697788e-07  0.00096644835  0.00096644835
     50000   9.6161731e-08  0.0010025247   0.0010025247 
     51000   7.2235134e-08  0.0010368762   0.0010368762 
     52000   6.5876056e-08  0.0010698318   0.0010698318 
     53000   9.2168276e-08  0.0011043099   0.0011043099 
     54000   1.0828395e-07  0.0011413746   0.0011413746 
     55000   9.3790007e-08  0.0011785361   0.0011785361 
     56000   7.3496129e-08  0.0012136464   0.0012136464 
     57000   7.7964434e-08  0.0012481758   0.0012481758 
     58000   1.023779e-07   0.0012848561   0.0012848561 
     59000   1.0119715e-07  0.0013234109   0.0013234109 
     60000   8.284393e-08   0.0013609476   0.0013609476 
     61000   6.8840881e-08  0.0013966813   0.0013966813 
     62000   8.6287915e-08  0.0014330686   0.0014330686 
     63000   9.8459757e-08  0.0014719036   0.0014719036 
     64000   8.6921038e-08  0.0015113642   0.0015113642 
     65000   6.4999438e-08  0.0015489052   0.0015489052 
     66000   5.9618384e-08  0.0015852257   0.0015852257 
     67000   7.8894617e-08  0.0016230568   0.0016230568 
     68000   8.0851704e-08  0.0016630048   0.0016630048 
     69000   7.517385e-08   0.0017026505   0.0017026505 
     70000   5.7948852e-08  0.0017405309   0.0017405309 
     71000   6.6445622e-08  0.0017782029   0.0017782029 
     72000   7.7582585e-08  0.0018176148   0.0018176148 
     73000   7.4110179e-08  0.0018580099   0.0018580099 
     74000   6.4084886e-08  0.0018971262   0.0018971262 
     75000   5.5444395e-08  0.0019349621   0.0019349621 
     76000   7.7613757e-08  0.0019736577   0.0019736577 
     77000   8.4500484e-08  0.0020142565   0.0020142565 
     78000   8.7718564e-08  0.002055012    0.002055012  
     79000   7.6197935e-08  0.0020941908   0.0020941908 
     80000   7.9706269e-08  0.0021326704   0.0021326704 
     81000   9.3742071e-08  0.002172368    0.002172368  
     82000   8.951702e-08   0.0022132621   0.0022132621 
     83000   9.089544e-08   0.002253456    0.002253456  
     84000   7.9814778e-08  0.002292459    0.002292459  
     85000   9.5465776e-08  0.0023317803   0.0023317803 
     86000   9.7568613e-08  0.0023724143   0.0023724143 
     87000   9.6607282e-08  0.0024131961   0.0024131961 
     88000   9.0539424e-08  0.002452736    0.002452736  
     89000   8.4319821e-08  0.0024917689   0.0024917689 
     90000   9.6601051e-08  0.0025317598   0.0025317598 
     91000   8.7600783e-08  0.0025726551   0.0025726551 
     92000   9.0659702e-08  0.0026130235   0.0026130235 
     93000   7.6723118e-08  0.0026524219   0.0026524219 
     94000   8.2751935e-08  0.0026918945   0.0026918945 
     95000   8.3309225e-08  0.0027321103   0.0027321103 
     96000   7.5389338e-08  0.002772414    0.002772414  
     97000   7.5219007e-08  0.0028119805   0.0028119805 
     98000   6.4802879e-08  0.002851326    0.002851326  
     99000   7.4799258e-08  0.0028913319   0.0028913319 
    100000   6.385469e-08   0.0029317369   0.0029317369 
Loop time of 15.7627 on 4 procs for 100000 steps with 1360 atoms

Performance: 54812.976 tau/day, 6344.094 timesteps/s, 8.628 Matom-step/s
98.8% CPU use with 4 MPI tasks x 1 OpenMP threads

MPI task timing breakdown:
Section |  min time  |  avg time  |  max time  |%varavg| %total
---------------------------------------------------------------
Pair    | 0          | 0          | 0          |   0.0 |  0.00
Bond    | 9.8446     | 10.077     | 10.304     |   5.6 | 63.93
Neigh   | 4.498e-06  | 8.967e-06  | 1.3816e-05 |   0.0 |  0.00
Comm    | 3.6422     | 4.0345     | 4.4337     |  14.8 | 25.60
Output  | 0.00066712 | 0.00092255 | 0.0013679  |   0.0 |  0.01
Modify  | 1.3335     | 1.3496     | 1.3778     |   1.4 |  8.56
Other   |            | 0.3004     |            |       |  1.91

Nlocal:            340 ave         340 max         340 min
Histogram: 4 0 0 0 0 0 0 0 0 0
Nghost:           1020 ave        1020 max        1020 min
Histogram: 4 0 0 0 0 0 0 0 0 0
Neighs:              0 ave           0 max           0 min
Histogram: 4 0 0 0 0 0 0 0 0 0

Total # of neighbors = 0
Ave neighs/atom = 0
Ave special neighs/atom = 2.1176471
Neighbor list builds = 1
Dangerous builds = 0

variable        bz equal 0.25
fix             2 magnets efield 0.0 0.0 v_bz

fix             3 all viscous 1e-3
fix             4 all viscous/sphere 1e-3

run             50000
Per MPI rank memory allocation (min/avg/max) = 12.56 | 12.56 | 12.56 Mbytes
   Step         KinEng         PotEng         E_bond    
    100000   6.385469e-08   0.0029317369   0.0029317369 
    101000   4.5700363e-08  0.0029346255   0.0029346255 
    102000   3.644612e-08   0.0029336414   0.0029336414 
    103000   2.1149998e-08  0.002931813    0.002931813  
    104000   1.8791607e-08  0.0029318926   0.0029318926 
    105000   6.9842089e-09  0.0029335547   0.0029335547 
    106000   9.2564774e-09  0.0029337775   0.0029337775 
    107000   6.1567505e-09  0.0029326787   0.0029326787 
    108000   7.4485723e-09  0.0029322326   0.0029322326 
    109000   8.2358045e-09  0.0029329644   0.0029329644 
    110000   9.5176889e-09  0.0029335668   0.0029335668 
    111000   1.1060195e-08  0.0029328621   0.0029328621 
    112000   9.5980309e-09  0.0029319329   0.0029319329 
    113000   1.0662014e-08  0.0029318172   0.0029318172 
    114000   9.173265e-09   0.0029323438   0.0029323438 
    115000   8.8294606e-09  0.0029324384   0.0029324384 
    116000   6.6908685e-09  0.0029319225   0.0029319225 
    117000   5.5101935e-09  0.0029315496   0.0029315496 
    118000   4.1844695e-09  0.0029316069   0.0029316069 
    119000   2.5251857e-09  0.0029317383   0.0029317383 
    120000   1.8329136e-09  0.0029315079   0.0029315079 
    121000   8.602551e-10   0.0029312256   0.0029312256 
    122000   6.5912408e-10  0.0029312691   0.0029312691 
    123000   2.5492722e-10  0.0029315208   0.0029315208 
    124000   4.7258669e-10  0.0029315825   0.0029315825 
    125000   5.7262752e-10  0.002931384    0.002931384  
    126000   6.5541948e-10  0.0029312805   0.0029312805 
    127000   8.2127971e-10  0.002931404    0.002931404  
    128000   9.0932897e-10  0.0029315864   0.0029315864 
    129000   1.0778128e-09  0.0029316252   0.0029316252 
    130000   9.8460376e-10  0.0029316025   0.0029316025 
    131000   9.5768117e-10  0.0029316724   0.0029316724 
    132000   8.3041323e-10  0.0029317895   0.0029317895 
    133000   6.7904597e-10  0.0029318261   0.0029318261 
    134000   5.1036945e-10  0.0029317721   0.0029317721 
    135000   3.541123e-10   0.0029317713   0.0029317713 
    136000   2.3914371e-10  0.0029318604   0.0029318604 
    137000   1.2344993e-10  0.0029319465   0.0029319465 
    138000   7.6505376e-11  0.0029319488   0.0029319488 
    139000   4.2358532e-11  0.0029319053   0.0029319053 
    140000   3.3880269e-11  0.0029318973   0.0029318973 
    141000   2.7799721e-11  0.0029319219   0.0029319219 
    142000   4.3698672e-11  0.0029319285   0.0029319285 
    143000   7.0135665e-11  0.0029318993   0.0029318993 
    144000   8.4399559e-11  0.002931879    0.002931879  
    145000   9.9492616e-11  0.0029318868   0.0029318868 
    146000   1.0533391e-10  0.0029318871   0.0029318871 
    147000   1.0563862e-10  0.0029318522   0.0029318522 
    148000   9.3928773e-11  0.0029318043   0.0029318043 
    149000   8.1061789e-11  0.002931785    0.002931785  
    150000   6.5667742e-11  0.0029317921   0.0029317921 
Loop time of 7.87511 on 4 procs for 50000 steps with 1360 atoms

Performance: 54856.361 tau/day, 6349.116 timesteps/s, 8.635 Matom-step/s
98.8% CPU use with 4 MPI tasks x 1 OpenMP threads

MPI task timing breakdown:
Section |  min time  |  avg time  |  max time  |%varavg| %total
---------------------------------------------------------------
Pair    | 0          | 0          | 0          |   0.0 |  0.00
Bond    | 4.9138     | 5.0264     | 5.1357     |   3.9 | 63.83
Neigh   | 0          | 0          | 0          |   0.0 |  0.00
Comm    | 1.8267     | 2.0134     | 2.203      |  10.0 | 25.57
Output  | 0.00035004 | 0.00046447 | 0.00066167 |   0.0 |  0.01
Modify  | 0.68597    | 0.69581    | 0.72381    |   1.9 |  8.84
Other   |            | 0.139      |            |       |  1.76

Nlocal:            340 ave         342 max         338 min
Histogram: 1 0 1 0 0 0 0 1 0 1
Nghost:           1020 ave        1022 max        1018 min
Histogram: 1 0 1 0 0 0 0 1 0 1
Neighs:              0 ave           0 max           0 min
Histogram: 4 0 0 0 0 0 0 0 0 0

Total # of neighbors = 0
Ave neighs/atom = 0
Ave special neighs/atom = 2.1176471
Neighbor list builds = 0
Dangerous builds = 0
Total wall time: 0:00:23
