LAMMPS (10 Dec 2025 - Development - patch_10Dec2025-125-g8985ed3c66-modified)
OMP_NUM_THREADS environment is not set. Defaulting to 1 thread.
  using 1 OpenMP thread(s) per MPI task
# fix gcmc example with fix shake

# variables available on command line

variable        mu index -8.1
variable	disp index 0.5
variable        temp index 338.0
variable        lbox index 10.0
variable        spacing index 5.0

# global model settings

units           real
atom_style      full
boundary        p p p
pair_style      lj/cut/coul/long  14
pair_modify     mix arithmetic tail yes
kspace_style    ewald 0.0001
bond_style      harmonic
angle_style     harmonic

# box, start molecules on simple cubic lattice

lattice 	sc ${spacing}
lattice 	sc 5.0
Lattice spacing in x,y,z = 5 5 5
region          box block 0 ${lbox} 0 ${lbox} 0 ${lbox} units box
region          box block 0 10.0 0 ${lbox} 0 ${lbox} units box
region          box block 0 10.0 0 10.0 0 ${lbox} units box
region          box block 0 10.0 0 10.0 0 10.0 units box
create_box      2 box                                       bond/types 1                                angle/types 1                               extra/bond/per/atom 2                       extra/angle/per/atom 1                      extra/special/per/atom 2
Created orthogonal box = (0 0 0) to (10 10 10)
  1 by 1 by 1 MPI processor grid

molecule        h2omol H2O.txt
Read molecule template h2omol:
# Water molecule. SPC/E model.
  1 molecules
  0 fragments
  0 bodies
  3 atoms with max type 2
  2 bonds with max type 1
  1 angles with max type 1
  0 dihedrals with max type 0
  0 impropers with max type 0
create_atoms   	0 box mol h2omol 464563 units box
Created 24 atoms
  using box units in orthogonal box = (0 0 0) to (10 10 10)
  create_atoms CPU = 0.002 seconds

# rigid SPC/E water model

pair_coeff      1 1 0.15535 3.166
pair_coeff      * 2 0.0000 0.0000

bond_coeff      1     1000       1.0
angle_coeff     1      100       109.47

# masses

mass 1 15.9994
mass 2 1.0

# MD settings

group           h2o type 1 2
24 atoms in group h2o
neighbor        2.0 bin
neigh_modify    every 1 delay 1 check yes
velocity       	all create ${temp} 54654
velocity       	all create 338.0 54654
timestep        1.0

minimize 0.0 0.0 100 1000
Switching to 'neigh_modify every 1 delay 0 check yes' setting during minimization
Ewald initialization ...
  using 12-bit tables for long-range coulomb
  G vector (1/distance) = 0.17044845
  estimated absolute RMS force accuracy = 0.033206374
  estimated relative force accuracy = 0.00010000001
  KSpace vectors: actual max1d max3d = 16 2 62
                  kxmax kymax kzmax  = 2 2 2
Generated 0 of 1 mixed pair_coeff terms from arithmetic mixing rule
Neighbor list info ...
  update: every = 1 steps, delay = 0 steps, check = yes
  max neighbors/atom: 2000, page size: 100000
  master list distance cutoff = 16
  ghost atom cutoff = 16
  binsize = 8, bins = 2 2 2
  1 neighbor lists, perpetual/occasional/extra = 1 0 0
  (1) pair lj/cut/coul/long, perpetual
      attributes: half, newton on
      pair build: half/bin/newton
      stencil: half/bin/3d
      bin: standard
Per MPI rank memory allocation (min/avg/max) = 11.88 | 11.88 | 11.88 Mbytes
   Step          Temp          E_pair         E_mol          TotEng         Press     
         0   338           -1.1958379      9.2628112e-06  21.976989      795.36071    
       100   338           -17.048203      0.087408665    6.2120228     -128.40105    
Loop time of 0.039038 on 1 procs for 100 steps with 24 atoms

99.5% CPU use with 1 MPI tasks x 1 OpenMP threads

Minimization stats:
  Stopping criterion = max iterations
  Energy initial, next-to-last, final = 
     -1.19582867716414  -16.9383361132258  -16.9607945702029
  Force two-norm initial, final = 20.819507 6.0831083
  Force max component initial, final = 7.29323 1.5282493
  Final line search alpha, max atom move = 0.042670736 0.065211522
  Iterations, force evaluations = 100 285

MPI task timing breakdown:
Section |  min time  |  avg time  |  max time  |%varavg| %total
---------------------------------------------------------------
Pair    | 0.034543   | 0.034543   | 0.034543   |   0.0 | 88.48
Bond    | 0.00026967 | 0.00026967 | 0.00026967 |   0.0 |  0.69
Kspace  | 0.0016768  | 0.0016768  | 0.0016768  |   0.0 |  4.30
Neigh   | 0          | 0          | 0          |   0.0 |  0.00
Comm    | 0.0020804  | 0.0020804  | 0.0020804  |   0.0 |  5.33
Output  | 2.1989e-05 | 2.1989e-05 | 2.1989e-05 |   0.0 |  0.06
Modify  | 0          | 0          | 0          |   0.0 |  0.00
Other   |            | 0.0004465  |            |       |  1.14

Nlocal:             24 ave          24 max          24 min
Histogram: 1 0 0 0 0 0 0 0 0 0
Nghost:           2163 ave        2163 max        2163 min
Histogram: 1 0 0 0 0 0 0 0 0 0
Neighs:           5041 ave        5041 max        5041 min
Histogram: 1 0 0 0 0 0 0 0 0 0

Total # of neighbors = 5041
Ave neighs/atom = 210.04167
Ave special neighs/atom = 2
Neighbor list builds = 0
Dangerous builds = 0
reset_timestep 0

# rigid constraints with thermostat

fix             mynvt h2o nvt temp ${temp} ${temp} 100
fix             mynvt h2o nvt temp 338.0 ${temp} 100
fix             mynvt h2o nvt temp 338.0 338.0 100
fix             wshake h2o shake 0.0001 50 0 b 1 a 1 mol h2omol
Finding SHAKE clusters ...
       0 = # of size 2 clusters
       0 = # of size 3 clusters
       0 = # of size 4 clusters
       8 = # of frozen angles
  find clusters CPU = 0.000 seconds

# important to make temperature dofs dynamic

compute_modify  thermo_temp dynamic/dof yes
compute_modify  mynvt_temp dynamic/dof yes

run 1000
Ewald initialization ...
  using 12-bit tables for long-range coulomb
  G vector (1/distance) = 0.17044845
  estimated absolute RMS force accuracy = 0.033206374
  estimated relative force accuracy = 0.00010000001
  KSpace vectors: actual max1d max3d = 16 2 62
                  kxmax kymax kzmax  = 2 2 2
Generated 0 of 1 mixed pair_coeff terms from arithmetic mixing rule
Per MPI rank memory allocation (min/avg/max) = 11.63 | 11.63 | 11.63 Mbytes
   Step          Temp          E_pair         E_mol          TotEng         Press     
         0   518.26667     -17.048203      0              6.1246141     -6999.4459    
      1000   273.95583     -52.606563      0             -40.357408      1250.0241    
Loop time of 0.0881289 on 1 procs for 1000 steps with 24 atoms

Performance: 980.382 ns/day, 0.024 hours/ns, 11347.014 timesteps/s, 272.328 katom-step/s
99.5% CPU use with 1 MPI tasks x 1 OpenMP threads

MPI task timing breakdown:
Section |  min time  |  avg time  |  max time  |%varavg| %total
---------------------------------------------------------------
Pair    | 0.065116   | 0.065116   | 0.065116   |   0.0 | 73.89
Bond    | 0.00018504 | 0.00018504 | 0.00018504 |   0.0 |  0.21
Kspace  | 0.0053274  | 0.0053274  | 0.0053274  |   0.0 |  6.04
Neigh   | 0.0040103  | 0.0040103  | 0.0040103  |   0.0 |  4.55
Comm    | 0.0058553  | 0.0058553  | 0.0058553  |   0.0 |  6.64
Output  | 2.1843e-05 | 2.1843e-05 | 2.1843e-05 |   0.0 |  0.02
Modify  | 0.0065919  | 0.0065919  | 0.0065919  |   0.0 |  7.48
Other   |            | 0.001022   |            |       |  1.16

Nlocal:             24 ave          24 max          24 min
Histogram: 1 0 0 0 0 0 0 0 0 0
Nghost:           1576 ave        1576 max        1576 min
Histogram: 1 0 0 0 0 0 0 0 0 0
Neighs:           5083 ave        5083 max        5083 min
Histogram: 1 0 0 0 0 0 0 0 0 0

Total # of neighbors = 5083
Ave neighs/atom = 211.79167
Ave special neighs/atom = 2
Neighbor list builds = 29
Dangerous builds = 0
reset_timestep 0

# gcmc

variable        tfac equal 5.0/3.0 # (3 trans + 2 rot)/(3 trans)
fix             mygcmc h2o gcmc 100 100 0 0 54341 ${temp} ${mu} ${disp} mol                 h2omol tfac_insert ${tfac} group h2o shake wshake
fix             mygcmc h2o gcmc 100 100 0 0 54341 338.0 ${mu} ${disp} mol                 h2omol tfac_insert ${tfac} group h2o shake wshake
fix             mygcmc h2o gcmc 100 100 0 0 54341 338.0 -8.1 ${disp} mol                 h2omol tfac_insert ${tfac} group h2o shake wshake
fix             mygcmc h2o gcmc 100 100 0 0 54341 338.0 -8.1 0.5 mol                 h2omol tfac_insert ${tfac} group h2o shake wshake
fix             mygcmc h2o gcmc 100 100 0 0 54341 338.0 -8.1 0.5 mol                 h2omol tfac_insert 1.66666666666667 group h2o shake wshake

# atom counts

variable 	oxygen atom "type==1"
variable 	hydrogen atom "type==2"
group 	        oxygen dynamic all var oxygen
dynamic group oxygen defined
group 		hydrogen dynamic all var hydrogen
dynamic group hydrogen defined
variable        nO equal count(oxygen)
variable        nH equal count(hydrogen)

# output

variable	tacc equal f_mygcmc[2]/(f_mygcmc[1]+0.1)
variable	iacc equal f_mygcmc[4]/(f_mygcmc[3]+0.1)
variable	dacc equal f_mygcmc[6]/(f_mygcmc[5]+0.1)
variable	racc equal f_mygcmc[8]/(f_mygcmc[7]+0.1)
thermo_style    custom step temp press pe ke density atoms v_iacc v_dacc v_tacc v_racc v_nO v_nH
thermo          1000

# run

run             20000
Ewald initialization ...
  using 12-bit tables for long-range coulomb
  G vector (1/distance) = 0.17044845
  estimated absolute RMS force accuracy = 0.033206374
  estimated relative force accuracy = 0.00010000001
  KSpace vectors: actual max1d max3d = 16 2 62
                  kxmax kymax kzmax  = 2 2 2
Generated 0 of 1 mixed pair_coeff terms from arithmetic mixing rule
WARNING: Fix gcmc using full_energy option (src/MC/fix_gcmc.cpp:545)
0 atoms in group FixGCMC:gcmc_exclusion_group:mygcmc
0 atoms in group FixGCMC:rotation_gas_atoms:mygcmc
WARNING: Neighbor exclusions used with KSpace solver may give inconsistent Coulombic energies (src/neighbor.cpp:659)
Per MPI rank memory allocation (min/avg/max) = 11.63 | 11.63 | 11.63 Mbytes
   Step          Temp          Press          PotEng         KinEng        Density        Atoms        v_iacc         v_dacc         v_tacc         v_racc          v_nO           v_nH     
         0   273.95583      1250.2451     -52.606563      12.249154      0.23910963            24   0              0              0              0              8              16           
      1000   376.29773     -3571.6252     -252.46712      54.961931      0.74721761            75   0.047515343    0.014138558    0              0              25             50           
      2000   347.9602      -3571.2779     -299.50244      59.120586      0.86677242            87   0.030515716    0.0088486874   0              0              29             58           
      3000   332.23652     -1121.7913     -359.80969      62.39104       0.95643854            96   0.02211648     0.005967774    0              0              32             64           
      4000   341.60417      550.82996     -360.57319      66.186713      0.98632724            99   0.017188211    0.0044508185   0              0              33             66           
      5000   336.78405     -3205.0106     -353.62536      65.252804      0.98632724            99   0.013621249    0.0035941057   0              0              33             66           
      6000   355.79734     -352.598       -358.16351      68.936679      0.98632724            99   0.01129906     0.0030089265   0              0              33             66           
      7000   347.83371      372.84976     -358.56096      67.393704      0.98632724            99   0.0099485518   0.0028718302   0              0              33             66           
      8000   306.31582     -2924.6686     -361.09984      61.175642      1.0162159            102   0.0089550011   0.0025124997   0              0              34             68           
      9000   324.49336     -647.77656     -373.97999      64.805955      1.0162159            102   0.0079909436   0.0022246446   0              0              34             68           
     10000   344.18171     -960.98077     -358.08301      70.789881      1.0461046            105   0.0073733086   0.0020071857   0              0              35             70           
     11000   282.72492      993.631       -375.70013      58.149701      1.0461046            105   0.0067027771   0.0018247842   0              0              35             70           
     12000   372.79512      608.65077     -365.29144      76.674968      1.0461046            105   0.0061196474   0.001679515    0              0              35             70           
     13000   354.55064     -4246.9935     -384.43983      72.92252       1.0461046            105   0.0056461827   0.001551085    0              0              35             70           
     14000   358.09494     -1429.4282     -366.43983      73.651497      1.0461046            105   0.005248897    0.0014386212   0              0              35             70           
     15000   345.03216      4791.8109     -399.57809      73.021748      1.0759934            108   0.0050323794   0.0013424441   0              0              36             72           
     16000   383.00624      2915.3513     -393.66417      81.058487      1.0759934            108   0.0048213027   0.0013904514   0              0              36             72           
     17000   326.96999      4790.2179     -389.52685      69.199115      1.0759934            108   0.0045438128   0.0013068634   0              0              36             72           
     18000   337.80476      955.80681     -377.58946      71.49216       1.0759934            108   0.0042917983   0.0012341385   0              0              36             72           
     19000   306.14688      1345.463      -383.33331      64.792165      1.0759934            108   0.0040637276   0.001169827    0              0              36             72           
     20000   316.33439      1698.0501     -397.45128      66.948223      1.0759934            108   0.0038537169   0.0011133491   0              0              36             72           
Loop time of 157.023 on 1 procs for 20000 steps with 108 atoms

Performance: 11.005 ns/day, 2.181 hours/ns, 127.370 timesteps/s, 13.756 katom-step/s
99.7% CPU use with 1 MPI tasks x 1 OpenMP threads

MPI task timing breakdown:
Section |  min time  |  avg time  |  max time  |%varavg| %total
---------------------------------------------------------------
Pair    | 37.619     | 37.619     | 37.619     |   0.0 | 23.96
Bond    | 0.059003   | 0.059003   | 0.059003   |   0.0 |  0.04
Kspace  | 0.45592    | 0.45592    | 0.45592    |   0.0 |  0.29
Neigh   | 2.4465     | 2.4465     | 2.4465     |   0.0 |  1.56
Comm    | 0.54509    | 0.54509    | 0.54509    |   0.0 |  0.35
Output  | 0.0012392  | 0.0012392  | 0.0012392  |   0.0 |  0.00
Modify  | 115.81     | 115.81     | 115.81     |   0.0 | 73.75
Other   |            | 0.08599    |            |       |  0.05

Nlocal:            108 ave         108 max         108 min
Histogram: 1 0 0 0 0 0 0 0 0 0
Nghost:           7937 ave        7937 max        7937 min
Histogram: 1 0 0 0 0 0 0 0 0 0
Neighs:          99951 ave       99951 max       99951 min
Histogram: 1 0 0 0 0 0 0 0 0 0

Total # of neighbors = 99951
Ave neighs/atom = 925.47222
Ave special neighs/atom = 2
Neighbor list builds = 20910
Dangerous builds = 0

Total wall time: 0:02:37
