LAMMPS (10 Dec 2025 - Development - patch_10Dec2025-125-g8985ed3c66-modified)
OMP_NUM_THREADS environment is not set. Defaulting to 1 thread.
  using 1 OpenMP thread(s) per MPI task
# Test correctness GCMC restart
# Restart should exactly reproduce original simulation

### LJ ###

variable        mu equal -1.25
variable        temp equal 2.0
variable        disp equal 1.0
variable        lbox equal 5.0
variable        nequil equal 100
variable        nsteps equal 1000
variable        restartfile string restart.gcmc.lj

# global model settings

units           lj
atom_style      atomic
pair_style      lj/cut 3.0
pair_modify     tail no # turn of to avoid triggering full_energy

# box and other settings

region          box block 0 ${lbox} 0 ${lbox} 0 ${lbox}
region          box block 0 5 0 ${lbox} 0 ${lbox}
region          box block 0 5 0 5 0 ${lbox}
region          box block 0 5 0 5 0 5
create_box      1 box
Created orthogonal box = (0 0 0) to (5 5 5)
  1 by 2 by 2 MPI processor grid
group           gcmcgroup type 1
0 atoms in group gcmcgroup
pair_coeff      * * 1.0 1.0
mass            * 1.0

# gcmc

fix             mygcmc gcmcgroup gcmc 1 100 100 1 29494 ${temp} ${mu} ${disp}
fix             mygcmc gcmcgroup gcmc 1 100 100 1 29494 2 ${mu} ${disp}
fix             mygcmc gcmcgroup gcmc 1 100 100 1 29494 2 -1.25 ${disp}
fix             mygcmc gcmcgroup gcmc 1 100 100 1 29494 2 -1.25 1

# output

compute_modify  thermo_temp dynamic/dof yes
thermo_style    custom step temp press pe ke density atoms

# run equilibration and write restart

run             ${nequil}
run             100
WARNING: No fixes with time integration, atoms won't move
For more information see https://docs.lammps.org/err0028 (src/verlet.cpp:60)
Generated 0 of 0 mixed pair_coeff terms from geometric mixing rule
Neighbor list info ...
  update: every = 1 steps, delay = 0 steps, check = yes
  max neighbors/atom: 2000, page size: 100000
  master list distance cutoff = 3.3
  ghost atom cutoff = 3.3
  binsize = 1.65, bins = 4 4 4
  1 neighbor lists, perpetual/occasional/extra = 1 0 0
  (1) pair lj/cut, perpetual
      attributes: half, newton on
      pair build: half/bin/atomonly/newton
      stencil: half/bin/3d
      bin: standard
Per MPI rank memory allocation (min/avg/max) = 0.4492 | 0.4492 | 0.4492 Mbytes
   Step          Temp          Press          PotEng         KinEng        Density        Atoms   
         0   0              0              0             -0              0                      0 
       100   2.1078187      1.1020099     -2.9854213      3.1098965      0.488                 61 
Loop time of 0.139078 on 4 procs for 100 steps with 61 atoms

Performance: 310617.078 tau/day, 719.021 timesteps/s, 43.860 katom-step/s
99.3% CPU use with 4 MPI tasks x 1 OpenMP threads

MPI task timing breakdown:
Section |  min time  |  avg time  |  max time  |%varavg| %total
---------------------------------------------------------------
Pair    | 0.00063735 | 0.00074719 | 0.00083708 |   0.0 |  0.54
Neigh   | 0.002497   | 0.0026307  | 0.0027167  |   0.2 |  1.89
Comm    | 0.0027386  | 0.0028894  | 0.0031358  |   0.3 |  2.08
Output  | 1.7403e-05 | 1.9861e-05 | 2.7053e-05 |   0.0 |  0.01
Modify  | 0.13267    | 0.13268    | 0.13269    |   0.0 | 95.40
Other   |            | 0.0001094  |            |       |  0.08

Nlocal:          15.25 ave          19 max          13 min
Histogram: 2 0 0 0 0 1 0 0 0 1
Nghost:          450.5 ave         470 max         431 min
Histogram: 1 0 0 0 1 1 0 0 0 1
Neighs:         550.75 ave         684 max         459 min
Histogram: 2 0 0 0 0 0 1 0 0 1

Total # of neighbors = 2203
Ave neighs/atom = 36.114754
Neighbor list builds = 100
Dangerous builds = 0
write_restart   ${restartfile}
write_restart   restart.gcmc.lj
System init for write_restart ...
Generated 0 of 0 mixed pair_coeff terms from geometric mixing rule

# run simulation, store reference values, and clear simulation

run             ${nsteps}
run             1000
WARNING: No fixes with time integration, atoms won't move
For more information see https://docs.lammps.org/err0028 (src/verlet.cpp:60)
Generated 0 of 0 mixed pair_coeff terms from geometric mixing rule
Per MPI rank memory allocation (min/avg/max) = 3.141 | 3.145 | 3.149 Mbytes
   Step          Temp          Press          PotEng         KinEng        Density        Atoms   
       100   2.1078187      1.1020099     -2.9854213      3.1098965      0.488                 61 
      1100   2.0377985      0.82361869    -3.5056264      3.0130306      0.56                  70 
Loop time of 1.39997 on 4 procs for 1000 steps with 70 atoms

Performance: 308577.539 tau/day, 714.300 timesteps/s, 50.001 katom-step/s
99.8% CPU use with 4 MPI tasks x 1 OpenMP threads

MPI task timing breakdown:
Section |  min time  |  avg time  |  max time  |%varavg| %total
---------------------------------------------------------------
Pair    | 0.0069866  | 0.0076821  | 0.0086723  |   0.7 |  0.55
Neigh   | 0.025      | 0.025659   | 0.026227   |   0.3 |  1.83
Comm    | 0.028134   | 0.029677   | 0.031101   |   0.6 |  2.12
Output  | 1.317e-05  | 1.5591e-05 | 2.242e-05  |   0.0 |  0.00
Modify  | 1.336      | 1.3361     | 1.3361     |   0.0 | 95.43
Other   |            | 0.0008862  |            |       |  0.06

Nlocal:           17.5 ave          22 max          14 min
Histogram: 1 0 0 2 0 0 0 0 0 1
Nghost:          522.5 ave         529 max         518 min
Histogram: 1 0 1 1 0 0 0 0 0 1
Neighs:            727 ave         876 max         611 min
Histogram: 1 0 0 2 0 0 0 0 0 1

Total # of neighbors = 2908
Ave neighs/atom = 41.542857
Neighbor list builds = 1000
Dangerous builds = 0
variable        tmp equal temp
variable        tref equal ${tmp}
variable        tref equal 2.03779849781659
variable        tmp equal press
variable        pref equal ${tmp}
variable        pref equal 0.823618694046359
variable        tmp equal sum(f_mygcmc)
variable        gcmcref equal ${tmp}
variable        gcmcref equal 240838
clear
OMP_NUM_THREADS environment is not set. Defaulting to 1 thread.
  using 1 OpenMP thread(s) per MPI task

# rerun simulation from restart

read_restart    ${restartfile}
read_restart    restart.gcmc.lj
Reading restart file ...
  restart file = 10 Dec 2025, LAMMPS = 10 Dec 2025
  restoring atom style atomic from restart
  orthogonal box = (0 0 0) to (5 5 5)
  1 by 2 by 2 MPI processor grid
  restoring pair style lj/cut from restart
  61 atoms
  read_restart CPU = 0.001 seconds

# gcmc

fix             mygcmc gcmcgroup gcmc 1 100 100 1 29494 ${temp} ${mu} ${disp}
fix             mygcmc gcmcgroup gcmc 1 100 100 1 29494 2 ${mu} ${disp}
fix             mygcmc gcmcgroup gcmc 1 100 100 1 29494 2 -1.25 ${disp}
fix             mygcmc gcmcgroup gcmc 1 100 100 1 29494 2 -1.25 1
Resetting global fix info from restart file:
  fix style: gcmc, fix ID: mygcmc

# output

compute_modify  thermo_temp dynamic/dof yes
thermo_style    custom step temp press pe ke density atoms

# rerun simulation from restart, measure errors, and clear

run             ${nsteps}
run             1000
WARNING: No fixes with time integration, atoms won't move
For more information see https://docs.lammps.org/err0028 (src/verlet.cpp:60)
Generated 0 of 0 mixed pair_coeff terms from geometric mixing rule
All restart file global fix info was re-assigned
Neighbor list info ...
  update: every = 1 steps, delay = 0 steps, check = yes
  max neighbors/atom: 2000, page size: 100000
  master list distance cutoff = 3.3
  ghost atom cutoff = 3.3
  binsize = 1.65, bins = 4 4 4
  1 neighbor lists, perpetual/occasional/extra = 1 0 0
  (1) pair lj/cut, perpetual
      attributes: half, newton on
      pair build: half/bin/atomonly/newton
      stencil: half/bin/3d
      bin: standard
Per MPI rank memory allocation (min/avg/max) = 3.077 | 3.078 | 3.078 Mbytes
   Step          Temp          Press          PotEng         KinEng        Density        Atoms   
       100   2.1078187      1.1020099     -2.9854213      3.1098965      0.488                 61 
      1100   2.0377985      0.82361869    -3.5056264      3.0130306      0.56                  70 
Loop time of 1.3855 on 4 procs for 1000 steps with 70 atoms

Performance: 311800.843 tau/day, 721.761 timesteps/s, 50.523 katom-step/s
99.8% CPU use with 4 MPI tasks x 1 OpenMP threads

MPI task timing breakdown:
Section |  min time  |  avg time  |  max time  |%varavg| %total
---------------------------------------------------------------
Pair    | 0.0076498  | 0.008266   | 0.0089383  |   0.5 |  0.60
Neigh   | 0.02496    | 0.02559    | 0.026163   |   0.3 |  1.85
Comm    | 0.028035   | 0.029311   | 0.030654   |   0.6 |  2.12
Output  | 1.4729e-05 | 1.7636e-05 | 2.5893e-05 |   0.0 |  0.00
Modify  | 1.3214     | 1.3215     | 1.3215     |   0.0 | 95.38
Other   |            | 0.0008397  |            |       |  0.06

Nlocal:           17.5 ave          22 max          14 min
Histogram: 1 0 0 2 0 0 0 0 0 1
Nghost:          522.5 ave         529 max         518 min
Histogram: 1 0 1 1 0 0 0 0 0 1
Neighs:            727 ave         876 max         611 min
Histogram: 1 0 0 2 0 0 0 0 0 1

Total # of neighbors = 2908
Ave neighs/atom = 41.542857
Neighbor list builds = 1000
Dangerous builds = 0
variable        tmp equal temp
variable        terror equal ${tmp} - v_tref
variable        terror equal 2.03779849781659 - v_tref
variable        tmp equal press
variable        perror equal ${tmp} - v_pref
variable        perror equal 0.823618694046359 - v_pref
variable        tmp equal sum(f_mygcmc)
variable        gcmcerror equal ${tmp} - v_gcmcref
variable        gcmcerror equal 240838 - v_gcmcref
clear
OMP_NUM_THREADS environment is not set. Defaulting to 1 thread.
  using 1 OpenMP thread(s) per MPI task

# report restart errors

print "LJ: change in temperature from restart = ${terror} "
LJ: change in temperature from restart = 0 
print "LJ: change in pressure from restart = ${perror} "
LJ: change in pressure from restart = 0 
print "LJ: change in fix GCMC from restart = ${gcmcerror} "
LJ: change in fix GCMC from restart = 0 

#### H2O ###

variable        mu equal -8.1
variable	disp equal 0.5
variable        temp equal 338.0
variable        lbox equal 10.0
variable        spacing equal 5.0
variable        nequil equal 100
variable        nsteps equal 100
variable        nevery equal 10
variable        restartfile string restart.gcmc.h2o

# global model settings

units           real
atom_style      full
boundary        p p p
pair_style      lj/cut/coul/long  14
pair_modify     mix arithmetic tail yes
kspace_style    ewald 0.0001
bond_style      harmonic
angle_style     harmonic

# box, start molecules on simple cubic lattice

lattice 	sc ${spacing}
lattice 	sc 5
Lattice spacing in x,y,z = 5 5 5
region          box block 0 ${lbox} 0 ${lbox} 0 ${lbox} units box
region          box block 0 10 0 ${lbox} 0 ${lbox} units box
region          box block 0 10 0 10 0 ${lbox} units box
region          box block 0 10 0 10 0 10 units box
create_box      2 box                                       bond/types 1                                angle/types 1                               extra/bond/per/atom 2                       extra/angle/per/atom 1                      extra/special/per/atom 2
Created orthogonal box = (0 0 0) to (10 10 10)
  1 by 2 by 2 MPI processor grid

molecule        h2omol H2O.txt
Read molecule template h2omol:
# Water molecule. SPC/E model.
  1 molecules
  0 fragments
  0 bodies
  3 atoms with max type 2
  2 bonds with max type 1
  1 angles with max type 1
  0 dihedrals with max type 0
  0 impropers with max type 0
create_atoms   	0 box mol h2omol 464563 units box
Created 24 atoms
  using box units in orthogonal box = (0 0 0) to (10 10 10)
  create_atoms CPU = 0.002 seconds

# rigid SPC/E water model

pair_coeff      1 1 0.15535 3.166
pair_coeff      * 2 0.0000 0.0000

bond_coeff      1     1000       1.0
angle_coeff     1      100       109.47

# masses

mass 1 15.9994
mass 2 1.0

# MD settings

group           h2o type 1 2
24 atoms in group h2o
neighbor        2.0 bin
neigh_modify    every 1 delay 1 check yes
velocity       	all create ${temp} 54654
velocity       	all create 338 54654
timestep        1.0

minimize 0.0 0.0 100 1000
Switching to 'neigh_modify every 1 delay 0 check yes' setting during minimization
Ewald initialization ...
  using 12-bit tables for long-range coulomb
  G vector (1/distance) = 0.17044845
  estimated absolute RMS force accuracy = 0.033206374
  estimated relative force accuracy = 0.00010000001
  KSpace vectors: actual max1d max3d = 16 2 62
                  kxmax kymax kzmax  = 2 2 2
Generated 0 of 1 mixed pair_coeff terms from arithmetic mixing rule
Neighbor list info ...
  update: every = 1 steps, delay = 0 steps, check = yes
  max neighbors/atom: 2000, page size: 100000
  master list distance cutoff = 16
  ghost atom cutoff = 16
  binsize = 8, bins = 2 2 2
  1 neighbor lists, perpetual/occasional/extra = 1 0 0
  (1) pair lj/cut/coul/long, perpetual
      attributes: half, newton on
      pair build: half/bin/newton
      stencil: half/bin/3d
      bin: standard
Per MPI rank memory allocation (min/avg/max) = 11.85 | 11.92 | 12.12 Mbytes
   Step          Temp          E_pair         E_mol          TotEng         Press     
         0   338           -0.95546485     9.2628112e-06  22.217362      805.04028    
       100   338           -15.273306      0.20594388     8.1054551     -95.912612    
Loop time of 0.0330999 on 4 procs for 100 steps with 24 atoms

99.1% CPU use with 4 MPI tasks x 1 OpenMP threads

Minimization stats:
  Stopping criterion = max iterations
  Energy initial, next-to-last, final = 
    -0.955455591456625  -15.0222740429501  -15.0673621835651
  Force two-norm initial, final = 24.052787 14.932952
  Force max component initial, final = 8.3161245 5.4344027
  Final line search alpha, max atom move = 0.010391588 0.056472074
  Iterations, force evaluations = 100 291

MPI task timing breakdown:
Section |  min time  |  avg time  |  max time  |%varavg| %total
---------------------------------------------------------------
Pair    | 0.0047184  | 0.0094663  | 0.015478   |   4.0 | 28.60
Bond    | 0.00011125 | 0.00014832 | 0.00022241 |   0.0 |  0.45
Kspace  | 0.0017978  | 0.0076389  | 0.012171   |   4.3 | 23.08
Neigh   | 0          | 0          | 0          |   0.0 |  0.00
Comm    | 0.01406    | 0.014288   | 0.014542   |   0.2 | 43.17
Output  | 1.1627e-05 | 1.3888e-05 | 2.0571e-05 |   0.0 |  0.04
Modify  | 0          | 0          | 0          |   0.0 |  0.00
Other   |            | 0.001544   |            |       |  4.67

Nlocal:              6 ave           8 max           4 min
Histogram: 1 0 0 0 0 2 0 0 0 1
Nghost:           1722 ave        1724 max        1720 min
Histogram: 1 0 0 0 0 2 0 0 0 1
Neighs:           1256 ave        2048 max         640 min
Histogram: 1 0 0 1 1 0 0 0 0 1

Total # of neighbors = 5024
Ave neighs/atom = 209.33333
Ave special neighs/atom = 2
Neighbor list builds = 0
Dangerous builds = 0
reset_timestep 0

# rigid constraints with thermostat

fix             mynvt h2o nvt temp ${temp} ${temp} 100
fix             mynvt h2o nvt temp 338 ${temp} 100
fix             mynvt h2o nvt temp 338 338 100
fix             wshake h2o shake 0.0001 50 0 b 1 a 1 mol h2omol
Finding SHAKE clusters ...
       0 = # of size 2 clusters
       0 = # of size 3 clusters
       0 = # of size 4 clusters
       8 = # of frozen angles
  find clusters CPU = 0.000 seconds

# important to make temperature dofs dynamic

compute_modify  thermo_temp dynamic/dof yes
compute_modify  mynvt_temp dynamic/dof yes

# output

thermo_style    custom step temp press pe ke density atoms

# gcmc

variable        tfac equal 5.0/3.0 # (3 trans + 2 rot)/(3 trans)
fix             mygcmc h2o gcmc ${nevery} 100 0 0 54341 ${temp} ${mu} ${disp} mol                 h2omol tfac_insert ${tfac} group h2o shake wshake
fix             mygcmc h2o gcmc 10 100 0 0 54341 ${temp} ${mu} ${disp} mol                 h2omol tfac_insert ${tfac} group h2o shake wshake
fix             mygcmc h2o gcmc 10 100 0 0 54341 338 ${mu} ${disp} mol                 h2omol tfac_insert ${tfac} group h2o shake wshake
fix             mygcmc h2o gcmc 10 100 0 0 54341 338 -8.1 ${disp} mol                 h2omol tfac_insert ${tfac} group h2o shake wshake
fix             mygcmc h2o gcmc 10 100 0 0 54341 338 -8.1 0.5 mol                 h2omol tfac_insert ${tfac} group h2o shake wshake
fix             mygcmc h2o gcmc 10 100 0 0 54341 338 -8.1 0.5 mol                 h2omol tfac_insert 1.66666666666667 group h2o shake wshake

# run equilibration and write restart

run             ${nequil}
run             100
Ewald initialization ...
  using 12-bit tables for long-range coulomb
  G vector (1/distance) = 0.17044845
  estimated absolute RMS force accuracy = 0.033206374
  estimated relative force accuracy = 0.00010000001
  KSpace vectors: actual max1d max3d = 16 2 62
                  kxmax kymax kzmax  = 2 2 2
Generated 0 of 1 mixed pair_coeff terms from arithmetic mixing rule
WARNING: Fix gcmc using full_energy option (src/MC/fix_gcmc.cpp:545)
0 atoms in group FixGCMC:gcmc_exclusion_group:mygcmc
0 atoms in group FixGCMC:rotation_gas_atoms:mygcmc
WARNING: Neighbor exclusions used with KSpace solver may give inconsistent Coulombic energies (src/neighbor.cpp:659)
Per MPI rank memory allocation (min/avg/max) = 11.6 | 11.6 | 11.6 Mbytes
   Step          Temp          Press          PotEng         KinEng        Density        Atoms   
         0   518.26667      20.304529     -15.273306      23.172817      0.23910963            24 
       100   477.28863     -969.19761     -181.03568      66.867217      0.7173289             72 
Loop time of 0.839098 on 4 procs for 100 steps with 72 atoms

Performance: 10.297 ns/day, 2.331 hours/ns, 119.176 timesteps/s, 8.581 katom-step/s
99.7% CPU use with 4 MPI tasks x 1 OpenMP threads

MPI task timing breakdown:
Section |  min time  |  avg time  |  max time  |%varavg| %total
---------------------------------------------------------------
Pair    | 0.0070271  | 0.010148   | 0.015674   |   3.5 |  1.21
Bond    | 4.0937e-05 | 4.8649e-05 | 6.3285e-05 |   0.0 |  0.01
Kspace  | 0.00072686 | 0.0062102  | 0.0093288  |   4.4 |  0.74
Neigh   | 0.0039266  | 0.0039462  | 0.0039631  |   0.0 |  0.47
Comm    | 0.0069446  | 0.0069817  | 0.0069959  |   0.0 |  0.83
Output  | 1.5107e-05 | 1.7919e-05 | 2.601e-05  |   0.0 |  0.00
Modify  | 0.8114     | 0.81144    | 0.81146    |   0.0 | 96.70
Other   |            | 0.0003104  |            |       |  0.04

Nlocal:             18 ave          21 max          14 min
Histogram: 1 0 0 0 1 0 0 0 1 1
Nghost:        4162.75 ave        4179 max        4143 min
Histogram: 1 0 0 0 1 0 0 1 0 1
Neighs:        11105.2 ave       16263 max        9039 min
Histogram: 3 0 0 0 0 0 0 0 0 1

Total # of neighbors = 44421
Ave neighs/atom = 616.95833
Ave special neighs/atom = 2
Neighbor list builds = 1020
Dangerous builds = 0
write_restart   ${restartfile}
write_restart   restart.gcmc.h2o
System init for write_restart ...
Ewald initialization ...
  using 12-bit tables for long-range coulomb
  G vector (1/distance) = 0.17848041
  estimated absolute RMS force accuracy = 0.033206428
  estimated relative force accuracy = 0.00010000017
  KSpace vectors: actual max1d max3d = 16 2 62
                  kxmax kymax kzmax  = 2 2 2
Generated 0 of 1 mixed pair_coeff terms from arithmetic mixing rule
0 atoms in group FixGCMC:rotation_gas_atoms:mygcmc
WARNING: Neighbor exclusions used with KSpace solver may give inconsistent Coulombic energies (src/neighbor.cpp:659)

# run simulation, store reference values, and clear simulation

run             ${nsteps}
run             100
Ewald initialization ...
  using 12-bit tables for long-range coulomb
  G vector (1/distance) = 0.17848041
  estimated absolute RMS force accuracy = 0.033206428
  estimated relative force accuracy = 0.00010000017
  KSpace vectors: actual max1d max3d = 16 2 62
                  kxmax kymax kzmax  = 2 2 2
Generated 0 of 1 mixed pair_coeff terms from arithmetic mixing rule
0 atoms in group FixGCMC:rotation_gas_atoms:mygcmc
WARNING: Neighbor exclusions used with KSpace solver may give inconsistent Coulombic energies (src/neighbor.cpp:659)
Per MPI rank memory allocation (min/avg/max) = 12.02 | 12.03 | 12.04 Mbytes
   Step          Temp          Press          PotEng         KinEng        Density        Atoms   
       100   477.28863     -803.33794     -180.4094       66.867217      0.7173289             72 
       200   372.04171     -1361.109      -206.19712      56.558269      0.77710631            78 
Loop time of 1.36562 on 4 procs for 100 steps with 78 atoms

Performance: 6.327 ns/day, 3.793 hours/ns, 73.227 timesteps/s, 5.712 katom-step/s
99.8% CPU use with 4 MPI tasks x 1 OpenMP threads

MPI task timing breakdown:
Section |  min time  |  avg time  |  max time  |%varavg| %total
---------------------------------------------------------------
Pair    | 0.012082   | 0.016647   | 0.026323   |   4.4 |  1.22
Bond    | 5.5164e-05 | 6.392e-05  | 7.7342e-05 |   0.0 |  0.00
Kspace  | 0.00091105 | 0.010519   | 0.015073   |   5.5 |  0.77
Neigh   | 0.0060308  | 0.0060427  | 0.0060546  |   0.0 |  0.44
Comm    | 0.0082789  | 0.0083293  | 0.0084129  |   0.1 |  0.61
Output  | 1.278e-05  | 1.4785e-05 | 2.0625e-05 |   0.0 |  0.00
Modify  | 1.3236     | 1.3236     | 1.3237     |   0.0 | 96.93
Other   |            | 0.0003676  |            |       |  0.03

Nlocal:           19.5 ave          26 max          14 min
Histogram: 1 0 1 0 0 1 0 0 0 1
Nghost:         4550.5 ave        4579 max        4507 min
Histogram: 1 0 0 0 0 0 1 0 1 1
Neighs:        13053.8 ave       21816 max       10038 min
Histogram: 3 0 0 0 0 0 0 0 0 1

Total # of neighbors = 52215
Ave neighs/atom = 669.42308
Ave special neighs/atom = 2
Neighbor list builds = 1020
Dangerous builds = 0
variable        tmp equal temp
variable        tref equal ${tmp}
variable        tref equal 372.041710334682
variable        tmp equal press
variable        pref equal ${tmp}
variable        pref equal -1361.10897131464
variable        tmp equal sum(f_mygcmc)
variable        gcmcref equal ${tmp}
variable        gcmcref equal 2062
clear
OMP_NUM_THREADS environment is not set. Defaulting to 1 thread.
  using 1 OpenMP thread(s) per MPI task

# rerun simulation from restart

read_restart    ${restartfile}
read_restart    restart.gcmc.h2o
Reading restart file ...
  restart file = 10 Dec 2025, LAMMPS = 10 Dec 2025
  restoring atom style full from restart
  orthogonal box = (0 0 0) to (10 10 10)
  1 by 2 by 2 MPI processor grid
  restoring pair style lj/cut/coul/long from restart
  restoring bond style harmonic from restart
  restoring angle style harmonic from restart
  72 atoms
  86 bonds
  43 angles
Finding 1-2 1-3 1-4 neighbors ...
  special bond factors lj:    0        0        0       
  special bond factors coul:  0        0        0       
     2 = max # of 1-2 neighbors
     1 = max # of 1-3 neighbors
     1 = max # of 1-4 neighbors
     3 = max # of special neighbors
  special bonds CPU = 0.000 seconds
  read_restart CPU = 0.003 seconds
molecule        h2omol H2O.txt
Read molecule template h2omol:
# Water molecule. SPC/E model.
  1 molecules
  0 fragments
  0 bodies
  3 atoms with max type 2
  2 bonds with max type 1
  1 angles with max type 1
  0 dihedrals with max type 0
  0 impropers with max type 0
kspace_style    ewald 0.0001
fix             mynvt h2o nvt temp ${temp} ${temp} 100
fix             mynvt h2o nvt temp 338 ${temp} 100
fix             mynvt h2o nvt temp 338 338 100
Resetting global fix info from restart file:
  fix style: nvt, fix ID: mynvt
fix             wshake h2o shake 0.0001 50 0 b 1 a 1 mol h2omol
Finding SHAKE clusters ...
       0 = # of size 2 clusters
       0 = # of size 3 clusters
       0 = # of size 4 clusters
      24 = # of frozen angles
  find clusters CPU = 0.000 seconds

# important to make temperature dofs dynamic

compute_modify  thermo_temp dynamic/dof yes
compute_modify  mynvt_temp dynamic/dof yes

# gcmc

fix             mygcmc h2o gcmc ${nevery} 100 0 0 54341 ${temp} ${mu} ${disp} mol                 h2omol tfac_insert ${tfac} group h2o shake wshake
fix             mygcmc h2o gcmc 10 100 0 0 54341 ${temp} ${mu} ${disp} mol                 h2omol tfac_insert ${tfac} group h2o shake wshake
fix             mygcmc h2o gcmc 10 100 0 0 54341 338 ${mu} ${disp} mol                 h2omol tfac_insert ${tfac} group h2o shake wshake
fix             mygcmc h2o gcmc 10 100 0 0 54341 338 -8.1 ${disp} mol                 h2omol tfac_insert ${tfac} group h2o shake wshake
fix             mygcmc h2o gcmc 10 100 0 0 54341 338 -8.1 0.5 mol                 h2omol tfac_insert ${tfac} group h2o shake wshake
fix             mygcmc h2o gcmc 10 100 0 0 54341 338 -8.1 0.5 mol                 h2omol tfac_insert 1.66666666666667 group h2o shake wshake
Resetting global fix info from restart file:
  fix style: gcmc, fix ID: mygcmc

# output

compute_modify  thermo_temp dynamic/dof yes
thermo_style    custom step temp press pe ke density atoms

# rerun simulation from restart, measure errors, and clear

run             ${nsteps}
run             100
Ewald initialization ...
  using 12-bit tables for long-range coulomb
  G vector (1/distance) = 0.17848041
  estimated absolute RMS force accuracy = 0.033206428
  estimated relative force accuracy = 0.00010000017
  KSpace vectors: actual max1d max3d = 16 2 62
                  kxmax kymax kzmax  = 2 2 2
Generated 0 of 1 mixed pair_coeff terms from arithmetic mixing rule
All restart file global fix info was re-assigned
WARNING: Fix gcmc using full_energy option (src/MC/fix_gcmc.cpp:545)
0 atoms in group FixGCMC:gcmc_exclusion_group:mygcmc
0 atoms in group FixGCMC:rotation_gas_atoms:mygcmc
WARNING: Neighbor exclusions used with KSpace solver may give inconsistent Coulombic energies (src/neighbor.cpp:659)
Neighbor list info ...
  update: every = 1 steps, delay = 0 steps, check = yes
  max neighbors/atom: 2000, page size: 100000
  master list distance cutoff = 16
  ghost atom cutoff = 16
  binsize = 8, bins = 2 2 2
  1 neighbor lists, perpetual/occasional/extra = 1 0 0
  (1) pair lj/cut/coul/long, perpetual
      attributes: half, newton on
      pair build: half/bin/newton
      stencil: half/bin/3d
      bin: standard
Per MPI rank memory allocation (min/avg/max) = 11.7 | 11.7 | 11.7 Mbytes
   Step          Temp          Press          PotEng         KinEng        Density        Atoms   
       100   477.28863     -803.33797     -180.4094       66.867217      0.7173289             72 
       200   372.04171     -1361.1086     -206.19711      56.558269      0.77710631            78 
Loop time of 1.3193 on 4 procs for 100 steps with 78 atoms

Performance: 6.549 ns/day, 3.665 hours/ns, 75.798 timesteps/s, 5.912 katom-step/s
99.8% CPU use with 4 MPI tasks x 1 OpenMP threads

MPI task timing breakdown:
Section |  min time  |  avg time  |  max time  |%varavg| %total
---------------------------------------------------------------
Pair    | 0.012206   | 0.015874   | 0.024191   |   3.8 |  1.20
Bond    | 1.5642e-05 | 1.6845e-05 | 1.8294e-05 |   0.0 |  0.00
Kspace  | 0.00085567 | 0.0091213  | 0.012769   |   5.0 |  0.69
Neigh   | 0.0064763  | 0.0065015  | 0.0065163  |   0.0 |  0.49
Comm    | 0.0081516  | 0.0081865  | 0.008247   |   0.0 |  0.62
Output  | 1.3163e-05 | 1.582e-05  | 2.3263e-05 |   0.0 |  0.00
Modify  | 1.2792     | 1.2792     | 1.2792     |   0.0 | 96.96
Other   |            | 0.0003742  |            |       |  0.03

Nlocal:           19.5 ave          26 max          14 min
Histogram: 1 0 1 0 0 1 0 0 0 1
Nghost:         4550.5 ave        4579 max        4507 min
Histogram: 1 0 0 0 0 0 1 0 1 1
Neighs:        13053.8 ave       21816 max       10038 min
Histogram: 3 0 0 0 0 0 0 0 0 1

Total # of neighbors = 52215
Ave neighs/atom = 669.42308
Ave special neighs/atom = 2
Neighbor list builds = 1020
Dangerous builds = 0
variable        tmp equal temp
variable        terror equal ${tmp} - v_tref
variable        terror equal 372.041708654967 - v_tref
variable        tmp equal press
variable        perror equal ${tmp} - v_pref
variable        perror equal -1361.10863412158 - v_pref
variable        tmp equal sum(f_mygcmc)
variable        gcmcerror equal ${tmp} - v_gcmcref
variable        gcmcerror equal 2062 - v_gcmcref
clear
OMP_NUM_THREADS environment is not set. Defaulting to 1 thread.
  using 1 OpenMP thread(s) per MPI task

# report restart errors

print "H2O: change in temperature from restart = ${terror} "
H2O: change in temperature from restart = -1.67971501241482e-06 
print "H2O: change in pressure from restart = ${perror} "
H2O: change in pressure from restart = 0.000337193059976926 
print "H2O: change in fix GCMC from restart = ${gcmcerror} "
H2O: change in fix GCMC from restart = 0 

Total wall time: 0:00:06
