LAMMPS (10 Dec 2025 - Development - patch_10Dec2025-124-g3eb49b8829-modified)
OMP_NUM_THREADS environment is not set. Defaulting to 1 thread.
  using 1 OpenMP thread(s) per MPI task
# Test correctness GCMC restart
# Restart should exactly reproduce original simulation

### LJ ###

variable        mu equal -1.25
variable        temp equal 2.0
variable        disp equal 1.0
variable        lbox equal 5.0
variable        nequil equal 100
variable        nsteps equal 1000
variable        restartfile string restart.gcmc.lj

# global model settings

units           lj
atom_style      atomic
pair_style      lj/cut 3.0
pair_modify     tail no # turn of to avoid triggering full_energy

# box and other settings

region          box block 0 ${lbox} 0 ${lbox} 0 ${lbox}
region          box block 0 5 0 ${lbox} 0 ${lbox}
region          box block 0 5 0 5 0 ${lbox}
region          box block 0 5 0 5 0 5
create_box      1 box
Created orthogonal box = (0 0 0) to (5 5 5)
  1 by 2 by 2 MPI processor grid
group           gcmcgroup type 1
0 atoms in group gcmcgroup
pair_coeff      * * 1.0 1.0
mass            * 1.0

# gcmc

fix             mygcmc gcmcgroup gcmc 1 100 100 1 29494 ${temp} ${mu} ${disp}
fix             mygcmc gcmcgroup gcmc 1 100 100 1 29494 2 ${mu} ${disp}
fix             mygcmc gcmcgroup gcmc 1 100 100 1 29494 2 -1.25 ${disp}
fix             mygcmc gcmcgroup gcmc 1 100 100 1 29494 2 -1.25 1

# output

compute_modify  thermo_temp dynamic/dof yes
thermo_style    custom step temp press pe ke density atoms

# run equilibration and write restart

run             ${nequil}
run             100
WARNING: No fixes with time integration, atoms won't move
For more information see https://docs.lammps.org/err0028 (src/verlet.cpp:60)
Generated 0 of 0 mixed pair_coeff terms from geometric mixing rule
Neighbor list info ...
  update: every = 1 steps, delay = 0 steps, check = yes
  max neighbors/atom: 2000, page size: 100000
  master list distance cutoff = 3.3
  ghost atom cutoff = 3.3
  binsize = 1.65, bins = 4 4 4
  1 neighbor lists, perpetual/occasional/extra = 1 0 0
  (1) pair lj/cut, perpetual
      attributes: half, newton on
      pair build: half/bin/atomonly/newton
      stencil: half/bin/3d
      bin: standard
Per MPI rank memory allocation (min/avg/max) = 0.4492 | 0.4492 | 0.4492 Mbytes
   Step          Temp          Press          PotEng         KinEng        Density        Atoms   
         0   0              0              0             -0              0                      0 
       100   2.1078187      1.1020099     -2.9854213      3.1098965      0.488                 61 
Loop time of 0.134299 on 4 procs for 100 steps with 61 atoms

Performance: 321671.237 tau/day, 744.609 timesteps/s, 45.421 katom-step/s
99.7% CPU use with 4 MPI tasks x 1 OpenMP threads

MPI task timing breakdown:
Section |  min time  |  avg time  |  max time  |%varavg| %total
---------------------------------------------------------------
Pair    | 0.00063161 | 0.00069943 | 0.00074854 |   0.0 |  0.52
Neigh   | 0.0025387  | 0.0026355  | 0.0027334  |   0.1 |  1.96
Comm    | 0.0027463  | 0.002896   | 0.0030606  |   0.2 |  2.16
Output  | 1.7781e-05 | 2.1336e-05 | 2.8556e-05 |   0.0 |  0.02
Modify  | 0.12795    | 0.12795    | 0.12795    |   0.0 | 95.27
Other   |            | 9.537e-05  |            |       |  0.07

Nlocal:          15.25 ave          19 max          13 min
Histogram: 2 0 0 0 0 1 0 0 0 1
Nghost:          450.5 ave         470 max         431 min
Histogram: 1 0 0 0 1 1 0 0 0 1
Neighs:         550.75 ave         684 max         459 min
Histogram: 2 0 0 0 0 0 1 0 0 1

Total # of neighbors = 2203
Ave neighs/atom = 36.114754
Neighbor list builds = 100
Dangerous builds = 0
write_restart   ${restartfile}
write_restart   restart.gcmc.lj
System init for write_restart ...
Generated 0 of 0 mixed pair_coeff terms from geometric mixing rule

# run simulation, store reference values, and clear simulation

run             ${nsteps}
run             1000
WARNING: No fixes with time integration, atoms won't move
For more information see https://docs.lammps.org/err0028 (src/verlet.cpp:60)
Generated 0 of 0 mixed pair_coeff terms from geometric mixing rule
Per MPI rank memory allocation (min/avg/max) = 3.141 | 3.145 | 3.149 Mbytes
   Step          Temp          Press          PotEng         KinEng        Density        Atoms   
       100   2.1078187      1.1020099     -2.9854213      3.1098965      0.488                 61 
      1100   2.0377985      0.82361869    -3.5056264      3.0130306      0.56                  70 
Loop time of 1.31302 on 4 procs for 1000 steps with 70 atoms

Performance: 329012.128 tau/day, 761.602 timesteps/s, 53.312 katom-step/s
99.9% CPU use with 4 MPI tasks x 1 OpenMP threads

MPI task timing breakdown:
Section |  min time  |  avg time  |  max time  |%varavg| %total
---------------------------------------------------------------
Pair    | 0.0070715  | 0.0075325  | 0.0079666  |   0.4 |  0.57
Neigh   | 0.025593   | 0.026334   | 0.026965   |   0.3 |  2.01
Comm    | 0.029081   | 0.030228   | 0.031481   |   0.5 |  2.30
Output  | 1.5556e-05 | 1.8085e-05 | 2.5476e-05 |   0.0 |  0.00
Modify  | 1.2481     | 1.2481     | 1.2482     |   0.0 | 95.06
Other   |            | 0.0007656  |            |       |  0.06

Nlocal:           17.5 ave          22 max          14 min
Histogram: 1 0 0 2 0 0 0 0 0 1
Nghost:          522.5 ave         529 max         518 min
Histogram: 1 0 1 1 0 0 0 0 0 1
Neighs:            727 ave         876 max         611 min
Histogram: 1 0 0 2 0 0 0 0 0 1

Total # of neighbors = 2908
Ave neighs/atom = 41.542857
Neighbor list builds = 1000
Dangerous builds = 0
variable        tmp equal temp
variable        tref equal ${tmp}
variable        tref equal 2.03779849781659
variable        tmp equal press
variable        pref equal ${tmp}
variable        pref equal 0.823618694046359
variable        tmp equal sum(f_mygcmc)
variable        gcmcref equal ${tmp}
variable        gcmcref equal 240838
clear
OMP_NUM_THREADS environment is not set. Defaulting to 1 thread.
  using 1 OpenMP thread(s) per MPI task

# rerun simulation from restart

read_restart    ${restartfile}
read_restart    restart.gcmc.lj
Reading restart file ...
  restart file = 10 Dec 2025, LAMMPS = 10 Dec 2025
  restoring atom style atomic from restart
  orthogonal box = (0 0 0) to (5 5 5)
  1 by 2 by 2 MPI processor grid
  restoring pair style lj/cut from restart
  61 atoms
  read_restart CPU = 0.001 seconds

# gcmc

fix             mygcmc gcmcgroup gcmc 1 100 100 1 29494 ${temp} ${mu} ${disp}
fix             mygcmc gcmcgroup gcmc 1 100 100 1 29494 2 ${mu} ${disp}
fix             mygcmc gcmcgroup gcmc 1 100 100 1 29494 2 -1.25 ${disp}
fix             mygcmc gcmcgroup gcmc 1 100 100 1 29494 2 -1.25 1
Resetting global fix info from restart file:
  fix style: gcmc, fix ID: mygcmc

# output

compute_modify  thermo_temp dynamic/dof yes
thermo_style    custom step temp press pe ke density atoms

# rerun simulation from restart, measure errors, and clear

run             ${nsteps}
run             1000
WARNING: No fixes with time integration, atoms won't move
For more information see https://docs.lammps.org/err0028 (src/verlet.cpp:60)
Generated 0 of 0 mixed pair_coeff terms from geometric mixing rule
All restart file global fix info was re-assigned
Neighbor list info ...
  update: every = 1 steps, delay = 0 steps, check = yes
  max neighbors/atom: 2000, page size: 100000
  master list distance cutoff = 3.3
  ghost atom cutoff = 3.3
  binsize = 1.65, bins = 4 4 4
  1 neighbor lists, perpetual/occasional/extra = 1 0 0
  (1) pair lj/cut, perpetual
      attributes: half, newton on
      pair build: half/bin/atomonly/newton
      stencil: half/bin/3d
      bin: standard
Per MPI rank memory allocation (min/avg/max) = 3.077 | 3.078 | 3.078 Mbytes
   Step          Temp          Press          PotEng         KinEng        Density        Atoms   
       100   2.1078187      1.1020099     -2.9854213      3.1098965      0.488                 61 
      1100   2.0377985      0.82361869    -3.5056264      3.0130306      0.56                  70 
Loop time of 1.31099 on 4 procs for 1000 steps with 70 atoms

Performance: 329522.161 tau/day, 762.783 timesteps/s, 53.395 katom-step/s
99.9% CPU use with 4 MPI tasks x 1 OpenMP threads

MPI task timing breakdown:
Section |  min time  |  avg time  |  max time  |%varavg| %total
---------------------------------------------------------------
Pair    | 0.0077347  | 0.0082512  | 0.0086872  |   0.4 |  0.63
Neigh   | 0.026495   | 0.026962   | 0.027623   |   0.3 |  2.06
Comm    | 0.028985   | 0.03015    | 0.030929   |   0.4 |  2.30
Output  | 1.4819e-05 | 1.7492e-05 | 2.5038e-05 |   0.0 |  0.00
Modify  | 1.2448     | 1.2448     | 1.2449     |   0.0 | 94.95
Other   |            | 0.0008141  |            |       |  0.06

Nlocal:           17.5 ave          22 max          14 min
Histogram: 1 0 0 2 0 0 0 0 0 1
Nghost:          522.5 ave         529 max         518 min
Histogram: 1 0 1 1 0 0 0 0 0 1
Neighs:            727 ave         876 max         611 min
Histogram: 1 0 0 2 0 0 0 0 0 1

Total # of neighbors = 2908
Ave neighs/atom = 41.542857
Neighbor list builds = 1000
Dangerous builds = 0
variable        tmp equal temp
variable        terror equal ${tmp} - v_tref
variable        terror equal 2.03779849781659 - v_tref
variable        tmp equal press
variable        perror equal ${tmp} - v_pref
variable        perror equal 0.823618694046359 - v_pref
variable        tmp equal sum(f_mygcmc)
variable        gcmcerror equal ${tmp} - v_gcmcref
variable        gcmcerror equal 240838 - v_gcmcref
clear
OMP_NUM_THREADS environment is not set. Defaulting to 1 thread.
  using 1 OpenMP thread(s) per MPI task

# report restart errors

print "LJ: change in temperature from restart = ${terror} "
LJ: change in temperature from restart = 0 
print "LJ: change in pressure from restart = ${perror} "
LJ: change in pressure from restart = 0 
print "LJ: change in fix GCMC from restart = ${gcmcerror} "
LJ: change in fix GCMC from restart = 0 

#### H2O ###

variable        mu equal -8.1
variable	disp equal 0.5
variable        temp equal 338.0
variable        lbox equal 10.0
variable        spacing equal 5.0
variable        nequil equal 100
variable        nsteps equal 100
variable        nevery equal 10
variable        restartfile string restart.gcmc.h2o

# global model settings

units           real
atom_style      full
boundary        p p p
pair_style      lj/cut/coul/long  14
pair_modify     mix arithmetic tail yes
kspace_style    ewald 0.0001
bond_style      harmonic
angle_style     harmonic

# box, start molecules on simple cubic lattice

lattice 	sc ${spacing}
lattice 	sc 5
Lattice spacing in x,y,z = 5 5 5
region          box block 0 ${lbox} 0 ${lbox} 0 ${lbox} units box
region          box block 0 10 0 ${lbox} 0 ${lbox} units box
region          box block 0 10 0 10 0 ${lbox} units box
region          box block 0 10 0 10 0 10 units box
create_box      2 box                                       bond/types 1                                angle/types 1                               extra/bond/per/atom 2                       extra/angle/per/atom 1                      extra/special/per/atom 2
Created orthogonal box = (0 0 0) to (10 10 10)
  1 by 2 by 2 MPI processor grid

molecule        h2omol H2O.txt
Read molecule template h2omol:
# Water molecule. SPC/E model.
  1 molecules
  0 fragments
  0 bodies
  3 atoms with max type 2
  2 bonds with max type 1
  1 angles with max type 1
  0 dihedrals with max type 0
  0 impropers with max type 0
create_atoms   	0 box mol h2omol 464563 units box
Created 24 atoms
  using box units in orthogonal box = (0 0 0) to (10 10 10)
  create_atoms CPU = 0.001 seconds

# rigid SPC/E water model

pair_coeff      1 1 0.15535 3.166
pair_coeff      * 2 0.0000 0.0000

bond_coeff      1     1000       1.0
angle_coeff     1      100       109.47

# masses

mass 1 15.9994
mass 2 1.0

# MD settings

group           h2o type 1 2
24 atoms in group h2o
neighbor        2.0 bin
neigh_modify    every 1 delay 1 check yes
velocity       	all create ${temp} 54654
velocity       	all create 338 54654
timestep        1.0

minimize 0.0 0.0 100 1000
Switching to 'neigh_modify every 1 delay 0 check yes' setting during minimization
Ewald initialization ...
  using 12-bit tables for long-range coulomb
  G vector (1/distance) = 0.17044845
  estimated absolute RMS force accuracy = 0.033206374
  estimated relative force accuracy = 0.00010000001
  KSpace vectors: actual max1d max3d = 16 2 62
                  kxmax kymax kzmax  = 2 2 2
Generated 0 of 1 mixed pair_coeff terms from arithmetic mixing rule
Neighbor list info ...
  update: every = 1 steps, delay = 0 steps, check = yes
  max neighbors/atom: 2000, page size: 100000
  master list distance cutoff = 16
  ghost atom cutoff = 16
  binsize = 8, bins = 2 2 2
  1 neighbor lists, perpetual/occasional/extra = 1 0 0
  (1) pair lj/cut/coul/long, perpetual
      attributes: half, newton on
      pair build: half/bin/newton
      stencil: half/bin/3d
      bin: standard
Per MPI rank memory allocation (min/avg/max) = 11.85 | 11.85 | 11.85 Mbytes
   Step          Temp          E_pair         E_mol          TotEng         Press     
         0   338           -4.9610797      9.2628112e-06  18.211747      730.90744    
       100   338           -15.083062      0.15733571     8.2470909      255.33962    
Loop time of 0.03779 on 4 procs for 100 steps with 24 atoms

99.7% CPU use with 4 MPI tasks x 1 OpenMP threads

Minimization stats:
  Stopping criterion = max iterations
  Energy initial, next-to-last, final = 
      -4.9610704341957  -14.9222147380404  -14.9257264056654
  Force two-norm initial, final = 15.473961 10.983883
  Force max component initial, final = 5.8004232 3.5492578
  Final line search alpha, max atom move = 0.00078794437 0.0027966177
  Iterations, force evaluations = 100 354

MPI task timing breakdown:
Section |  min time  |  avg time  |  max time  |%varavg| %total
---------------------------------------------------------------
Pair    | 0.0051405  | 0.010711   | 0.01833    |   4.6 | 28.34
Bond    | 0.0001038  | 0.00014474 | 0.00017598 |   0.0 |  0.38
Kspace  | 0.0017466  | 0.0092517  | 0.014719   |   4.9 | 24.48
Neigh   | 0          | 0          | 0          |   0.0 |  0.00
Comm    | 0.015941   | 0.016066   | 0.016183   |   0.1 | 42.51
Output  | 1.1794e-05 | 1.4097e-05 | 2.0869e-05 |   0.0 |  0.04
Modify  | 0          | 0          | 0          |   0.0 |  0.00
Other   |            | 0.001603   |            |       |  4.24

Nlocal:              6 ave           8 max           3 min
Histogram: 1 0 0 0 1 0 0 0 0 2
Nghost:           1722 ave        1725 max        1720 min
Histogram: 2 0 0 0 0 0 1 0 0 1
Neighs:        1256.75 ave        2101 max         667 min
Histogram: 1 0 1 0 1 0 0 0 0 1

Total # of neighbors = 5027
Ave neighs/atom = 209.45833
Ave special neighs/atom = 2
Neighbor list builds = 0
Dangerous builds = 0
reset_timestep 0

# rigid constraints with thermostat

fix             mynvt h2o nvt temp ${temp} ${temp} 100
fix             mynvt h2o nvt temp 338 ${temp} 100
fix             mynvt h2o nvt temp 338 338 100
fix             wshake h2o shake 0.0001 50 0 b 1 a 1 mol h2omol
Finding SHAKE clusters ...
       0 = # of size 2 clusters
       0 = # of size 3 clusters
       0 = # of size 4 clusters
       8 = # of frozen angles
  find clusters CPU = 0.000 seconds

# important to make temperature dofs dynamic

compute_modify  thermo_temp dynamic/dof yes
compute_modify  mynvt_temp dynamic/dof yes

# output

thermo_style    custom step temp press pe ke density atoms

# gcmc

variable        tfac equal 5.0/3.0 # (3 trans + 2 rot)/(3 trans)
fix             mygcmc h2o gcmc ${nevery} 100 0 0 54341 ${temp} ${mu} ${disp} mol                 h2omol tfac_insert ${tfac} group h2o shake wshake
fix             mygcmc h2o gcmc 10 100 0 0 54341 ${temp} ${mu} ${disp} mol                 h2omol tfac_insert ${tfac} group h2o shake wshake
fix             mygcmc h2o gcmc 10 100 0 0 54341 338 ${mu} ${disp} mol                 h2omol tfac_insert ${tfac} group h2o shake wshake
fix             mygcmc h2o gcmc 10 100 0 0 54341 338 -8.1 ${disp} mol                 h2omol tfac_insert ${tfac} group h2o shake wshake
fix             mygcmc h2o gcmc 10 100 0 0 54341 338 -8.1 0.5 mol                 h2omol tfac_insert ${tfac} group h2o shake wshake
fix             mygcmc h2o gcmc 10 100 0 0 54341 338 -8.1 0.5 mol                 h2omol tfac_insert 1.66666666666667 group h2o shake wshake

# run equilibration and write restart

run             ${nequil}
run             100
Ewald initialization ...
  using 12-bit tables for long-range coulomb
  G vector (1/distance) = 0.17044845
  estimated absolute RMS force accuracy = 0.033206374
  estimated relative force accuracy = 0.00010000001
  KSpace vectors: actual max1d max3d = 16 2 62
                  kxmax kymax kzmax  = 2 2 2
Generated 0 of 1 mixed pair_coeff terms from arithmetic mixing rule
WARNING: Fix gcmc using full_energy option (src/MC/fix_gcmc.cpp:545)
0 atoms in group FixGCMC:gcmc_exclusion_group:mygcmc
0 atoms in group FixGCMC:rotation_gas_atoms:mygcmc
WARNING: Neighbor exclusions used with KSpace solver may give inconsistent Coulombic energies (src/neighbor.cpp:659)
Per MPI rank memory allocation (min/avg/max) = 11.6 | 11.6 | 11.6 Mbytes
   Step          Temp          Press          PotEng         KinEng        Density        Atoms   
         0   518.26667     -2245.5095     -15.083062      23.172817      0.23910963            24 
       100   521.42279     -2576.0068     -172.93041      79.267377      0.77710631            78 
Loop time of 0.883006 on 4 procs for 100 steps with 78 atoms

Performance: 9.785 ns/day, 2.453 hours/ns, 113.250 timesteps/s, 8.833 katom-step/s
99.9% CPU use with 4 MPI tasks x 1 OpenMP threads

MPI task timing breakdown:
Section |  min time  |  avg time  |  max time  |%varavg| %total
---------------------------------------------------------------
Pair    | 0.0090876  | 0.011376   | 0.015474   |   2.3 |  1.29
Bond    | 4.594e-05  | 6.1057e-05 | 7.6024e-05 |   0.0 |  0.01
Kspace  | 0.0007551  | 0.0048419  | 0.0071109  |   3.5 |  0.55
Neigh   | 0.0040316  | 0.0040444  | 0.0040657  |   0.0 |  0.46
Comm    | 0.0075191  | 0.007554   | 0.0075784  |   0.0 |  0.86
Output  | 1.5734e-05 | 1.8491e-05 | 2.6692e-05 |   0.0 |  0.00
Modify  | 0.85477    | 0.85479    | 0.85482    |   0.0 | 96.81
Other   |            | 0.0003151  |            |       |  0.04

Nlocal:           19.5 ave          24 max          13 min
Histogram: 1 0 0 0 0 0 1 1 0 1
Nghost:        4417.75 ave        4507 max        4313 min
Histogram: 1 0 0 0 0 1 1 0 0 1
Neighs:        13032.2 ave       19995 max       10044 min
Histogram: 2 1 0 0 0 0 0 0 0 1

Total # of neighbors = 52129
Ave neighs/atom = 668.32051
Ave special neighs/atom = 2
Neighbor list builds = 1020
Dangerous builds = 0
write_restart   ${restartfile}
write_restart   restart.gcmc.h2o
System init for write_restart ...
Ewald initialization ...
  using 12-bit tables for long-range coulomb
  G vector (1/distance) = 0.17905152
  estimated absolute RMS force accuracy = 0.033206443
  estimated relative force accuracy = 0.00010000022
  KSpace vectors: actual max1d max3d = 16 2 62
                  kxmax kymax kzmax  = 2 2 2
Generated 0 of 1 mixed pair_coeff terms from arithmetic mixing rule
0 atoms in group FixGCMC:rotation_gas_atoms:mygcmc
WARNING: Neighbor exclusions used with KSpace solver may give inconsistent Coulombic energies (src/neighbor.cpp:659)

# run simulation, store reference values, and clear simulation

run             ${nsteps}
run             100
Ewald initialization ...
  using 12-bit tables for long-range coulomb
  G vector (1/distance) = 0.17905152
  estimated absolute RMS force accuracy = 0.033206443
  estimated relative force accuracy = 0.00010000022
  KSpace vectors: actual max1d max3d = 16 2 62
                  kxmax kymax kzmax  = 2 2 2
Generated 0 of 1 mixed pair_coeff terms from arithmetic mixing rule
0 atoms in group FixGCMC:rotation_gas_atoms:mygcmc
WARNING: Neighbor exclusions used with KSpace solver may give inconsistent Coulombic energies (src/neighbor.cpp:659)
Per MPI rank memory allocation (min/avg/max) = 12.02 | 12.02 | 12.03 Mbytes
   Step          Temp          Press          PotEng         KinEng        Density        Atoms   
       100   521.42279     -2385.2009     -172.21852      79.267377      0.77710631            78 
       200   510.4059      -2347.7155     -222.7645       83.678267      0.83688372            84 
Loop time of 1.73639 on 4 procs for 100 steps with 84 atoms

Performance: 4.976 ns/day, 4.823 hours/ns, 57.591 timesteps/s, 4.838 katom-step/s
99.9% CPU use with 4 MPI tasks x 1 OpenMP threads

MPI task timing breakdown:
Section |  min time  |  avg time  |  max time  |%varavg| %total
---------------------------------------------------------------
Pair    | 0.016047   | 0.022208   | 0.033252   |   4.4 |  1.28
Bond    | 7.1095e-05 | 8.2799e-05 | 9.5402e-05 |   0.0 |  0.00
Kspace  | 0.0010091  | 0.012036   | 0.018201   |   6.0 |  0.69
Neigh   | 0.0080372  | 0.0080532  | 0.0080779  |   0.0 |  0.46
Comm    | 0.0098782  | 0.0099063  | 0.009937   |   0.0 |  0.57
Output  | 1.5398e-05 | 1.815e-05  | 2.6341e-05 |   0.0 |  0.00
Modify  | 1.6836     | 1.6837     | 1.6837     |   0.0 | 96.96
Other   |            | 0.0004367  |            |       |  0.03

Nlocal:             21 ave          25 max          17 min
Histogram: 1 0 0 1 0 0 1 0 0 1
Nghost:           4831 ave        4916 max        4724 min
Histogram: 1 0 0 0 0 1 1 0 0 1
Neighs:          15097 ave       22532 max       11220 min
Histogram: 1 1 1 0 0 0 0 0 0 1

Total # of neighbors = 60388
Ave neighs/atom = 718.90476
Ave special neighs/atom = 2
Neighbor list builds = 1020
Dangerous builds = 0
variable        tmp equal temp
variable        tref equal ${tmp}
variable        tref equal 510.405901723154
variable        tmp equal press
variable        pref equal ${tmp}
variable        pref equal -2347.71548833292
variable        tmp equal sum(f_mygcmc)
variable        gcmcref equal ${tmp}
variable        gcmcref equal 2064
clear
OMP_NUM_THREADS environment is not set. Defaulting to 1 thread.
  using 1 OpenMP thread(s) per MPI task

# rerun simulation from restart

read_restart    ${restartfile}
read_restart    restart.gcmc.h2o
Reading restart file ...
  restart file = 10 Dec 2025, LAMMPS = 10 Dec 2025
  restoring atom style full from restart
  orthogonal box = (0 0 0) to (10 10 10)
  1 by 2 by 2 MPI processor grid
  restoring pair style lj/cut/coul/long from restart
  restoring bond style harmonic from restart
  restoring angle style harmonic from restart
  78 atoms
  92 bonds
  46 angles
Finding 1-2 1-3 1-4 neighbors ...
  special bond factors lj:    0        0        0       
  special bond factors coul:  0        0        0       
     2 = max # of 1-2 neighbors
     1 = max # of 1-3 neighbors
     1 = max # of 1-4 neighbors
     3 = max # of special neighbors
  special bonds CPU = 0.000 seconds
  read_restart CPU = 0.002 seconds
molecule        h2omol H2O.txt
Read molecule template h2omol:
# Water molecule. SPC/E model.
  1 molecules
  0 fragments
  0 bodies
  3 atoms with max type 2
  2 bonds with max type 1
  1 angles with max type 1
  0 dihedrals with max type 0
  0 impropers with max type 0
kspace_style    ewald 0.0001
fix             mynvt h2o nvt temp ${temp} ${temp} 100
fix             mynvt h2o nvt temp 338 ${temp} 100
fix             mynvt h2o nvt temp 338 338 100
Resetting global fix info from restart file:
  fix style: nvt, fix ID: mynvt
fix             wshake h2o shake 0.0001 50 0 b 1 a 1 mol h2omol
Finding SHAKE clusters ...
       0 = # of size 2 clusters
       0 = # of size 3 clusters
       0 = # of size 4 clusters
      26 = # of frozen angles
  find clusters CPU = 0.000 seconds

# important to make temperature dofs dynamic

compute_modify  thermo_temp dynamic/dof yes
compute_modify  mynvt_temp dynamic/dof yes

# gcmc

fix             mygcmc h2o gcmc ${nevery} 100 0 0 54341 ${temp} ${mu} ${disp} mol                 h2omol tfac_insert ${tfac} group h2o shake wshake
fix             mygcmc h2o gcmc 10 100 0 0 54341 ${temp} ${mu} ${disp} mol                 h2omol tfac_insert ${tfac} group h2o shake wshake
fix             mygcmc h2o gcmc 10 100 0 0 54341 338 ${mu} ${disp} mol                 h2omol tfac_insert ${tfac} group h2o shake wshake
fix             mygcmc h2o gcmc 10 100 0 0 54341 338 -8.1 ${disp} mol                 h2omol tfac_insert ${tfac} group h2o shake wshake
fix             mygcmc h2o gcmc 10 100 0 0 54341 338 -8.1 0.5 mol                 h2omol tfac_insert ${tfac} group h2o shake wshake
fix             mygcmc h2o gcmc 10 100 0 0 54341 338 -8.1 0.5 mol                 h2omol tfac_insert 1.66666666666667 group h2o shake wshake
Resetting global fix info from restart file:
  fix style: gcmc, fix ID: mygcmc

# output

compute_modify  thermo_temp dynamic/dof yes
thermo_style    custom step temp press pe ke density atoms

# rerun simulation from restart, measure errors, and clear

run             ${nsteps}
run             100
Ewald initialization ...
  using 12-bit tables for long-range coulomb
  G vector (1/distance) = 0.17905152
  estimated absolute RMS force accuracy = 0.033206443
  estimated relative force accuracy = 0.00010000022
  KSpace vectors: actual max1d max3d = 16 2 62
                  kxmax kymax kzmax  = 2 2 2
Generated 0 of 1 mixed pair_coeff terms from arithmetic mixing rule
All restart file global fix info was re-assigned
WARNING: Fix gcmc using full_energy option (src/MC/fix_gcmc.cpp:545)
0 atoms in group FixGCMC:gcmc_exclusion_group:mygcmc
0 atoms in group FixGCMC:rotation_gas_atoms:mygcmc
WARNING: Neighbor exclusions used with KSpace solver may give inconsistent Coulombic energies (src/neighbor.cpp:659)
Neighbor list info ...
  update: every = 1 steps, delay = 0 steps, check = yes
  max neighbors/atom: 2000, page size: 100000
  master list distance cutoff = 16
  ghost atom cutoff = 16
  binsize = 8, bins = 2 2 2
  1 neighbor lists, perpetual/occasional/extra = 1 0 0
  (1) pair lj/cut/coul/long, perpetual
      attributes: half, newton on
      pair build: half/bin/newton
      stencil: half/bin/3d
      bin: standard
Per MPI rank memory allocation (min/avg/max) = 11.7 | 11.71 | 11.71 Mbytes
   Step          Temp          Press          PotEng         KinEng        Density        Atoms   
       100   521.42279     -2385.201      -172.21852      79.267377      0.77710631            78 
       200   510.40591     -2347.7158     -222.7645       83.678268      0.83688372            84 
Loop time of 1.73221 on 4 procs for 100 steps with 84 atoms

Performance: 4.988 ns/day, 4.812 hours/ns, 57.730 timesteps/s, 4.849 katom-step/s
99.9% CPU use with 4 MPI tasks x 1 OpenMP threads

MPI task timing breakdown:
Section |  min time  |  avg time  |  max time  |%varavg| %total
---------------------------------------------------------------
Pair    | 0.015954   | 0.022203   | 0.033344   |   4.5 |  1.28
Bond    | 1.587e-05  | 2.3743e-05 | 3.5687e-05 |   0.0 |  0.00
Kspace  | 0.00094439 | 0.012002   | 0.01822    |   6.0 |  0.69
Neigh   | 0.0080553  | 0.008063   | 0.0080757  |   0.0 |  0.47
Comm    | 0.009893   | 0.0099469  | 0.010019   |   0.1 |  0.57
Output  | 1.6107e-05 | 1.8995e-05 | 2.7636e-05 |   0.0 |  0.00
Modify  | 1.6795     | 1.6795     | 1.6796     |   0.0 | 96.96
Other   |            | 0.0004194  |            |       |  0.02

Nlocal:             21 ave          25 max          17 min
Histogram: 1 0 0 1 0 0 1 0 0 1
Nghost:           4831 ave        4916 max        4724 min
Histogram: 1 0 0 0 0 1 1 0 0 1
Neighs:          15097 ave       22532 max       11220 min
Histogram: 1 1 1 0 0 0 0 0 0 1

Total # of neighbors = 60388
Ave neighs/atom = 718.90476
Ave special neighs/atom = 2
Neighbor list builds = 1020
Dangerous builds = 0
variable        tmp equal temp
variable        terror equal ${tmp} - v_tref
variable        terror equal 510.405907005116 - v_tref
variable        tmp equal press
variable        perror equal ${tmp} - v_pref
variable        perror equal -2347.71576941982 - v_pref
variable        tmp equal sum(f_mygcmc)
variable        gcmcerror equal ${tmp} - v_gcmcref
variable        gcmcerror equal 2064 - v_gcmcref
clear
OMP_NUM_THREADS environment is not set. Defaulting to 1 thread.
  using 1 OpenMP thread(s) per MPI task

# report restart errors

print "H2O: change in temperature from restart = ${terror} "
H2O: change in temperature from restart = 5.28196198956721e-06 
print "H2O: change in pressure from restart = ${perror} "
H2O: change in pressure from restart = -0.000281086900031369 
print "H2O: change in fix GCMC from restart = ${gcmcerror} "
H2O: change in fix GCMC from restart = 0 

Total wall time: 0:00:07
