LAMMPS (10 Dec 2025 - Development - patch_10Dec2025-125-g8985ed3c66-modified)
OMP_NUM_THREADS environment is not set. Defaulting to 1 thread.
  using 1 OpenMP thread(s) per MPI task
# GCMC for CO2 molecular fluid, rigid/small dynamics
# Rigid CO2 TraPPE model
# [Potoff and J.I. Siepmann, Vapor-liquid equilibria of
# mixtures containing alkanes, carbon dioxide and
# nitrogen AIChE J., 47,1676-1682 (2001)].

# variables available on command line

variable        mu index -8.1
variable        disp index 0.5
variable        temp index 338.0
variable        lbox index 10.0
variable        spacing index 5.0

# global model settings

units           real
atom_style      full
boundary        p p p
pair_style      lj/cut/coul/long  14
pair_modify     mix arithmetic tail yes
kspace_style    ewald 0.0001
bond_style      harmonic
angle_style     harmonic

# box, start molecules on simple cubic lattice

lattice         sc ${spacing}
lattice         sc 5.0
Lattice spacing in x,y,z = 5 5 5
region          box block 0 ${lbox} 0 ${lbox} 0 ${lbox} units box
region          box block 0 10.0 0 ${lbox} 0 ${lbox} units box
region          box block 0 10.0 0 10.0 0 ${lbox} units box
region          box block 0 10.0 0 10.0 0 10.0 units box
create_box      2 box                                       bond/types 1                                angle/types 1                               extra/bond/per/atom 2                       extra/angle/per/atom 1                      extra/special/per/atom 2
Created orthogonal box = (0 0 0) to (10 10 10)
  1 by 2 by 2 MPI processor grid
molecule        co2mol CO2.txt
Read molecule template co2mol:
# CO2 molecule file. TraPPE model.
  1 molecules
  0 fragments
  0 bodies
  3 atoms with max type 2
  2 bonds with max type 1
  1 angles with max type 1
  0 dihedrals with max type 0
  0 impropers with max type 0
create_atoms    0 box mol co2mol 464563 units box
Created 24 atoms
  using box units in orthogonal box = (0 0 0) to (10 10 10)
  create_atoms CPU = 0.003 seconds

# rigid CO2 TraPPE model

pair_coeff      1   1  0.053649   2.8
pair_coeff      2   2  0.156973   3.05
bond_coeff      1       0       1.16
angle_coeff     1       0       180

# masses

mass 1 12.0107
mass 2 15.9994

# MD settings

group           co2 type 1 2
24 atoms in group co2
neighbor        2.0 bin
neigh_modify    every 1 delay 10 check yes
velocity        all create ${temp} 54654
velocity        all create 338.0 54654
timestep        1.0

# rigid constraints with thermostat

fix             myrigid co2 rigid/small molecule mol co2mol
Fix rigid/small setup ...
  create bodies CPU = 0.001 seconds
  8 rigid bodies with 24 atoms
  1.16 = max distance from body owner to body atom

# dynamically update  fix rigid/nvt/small temperature ndof
fix_modify      myrigid dynamic/dof yes

# gcmc

variable        tfac equal 5.0/3.0 # (3 trans + 2 rot)/(3 trans)
fix             mygcmc co2 gcmc 100 100 0 0 54341 ${temp} ${mu} ${disp} mol                 co2mol tfac_insert ${tfac} group co2 rigid myrigid
fix             mygcmc co2 gcmc 100 100 0 0 54341 338.0 ${mu} ${disp} mol                 co2mol tfac_insert ${tfac} group co2 rigid myrigid
fix             mygcmc co2 gcmc 100 100 0 0 54341 338.0 -8.1 ${disp} mol                 co2mol tfac_insert ${tfac} group co2 rigid myrigid
fix             mygcmc co2 gcmc 100 100 0 0 54341 338.0 -8.1 0.5 mol                 co2mol tfac_insert ${tfac} group co2 rigid myrigid
fix             mygcmc co2 gcmc 100 100 0 0 54341 338.0 -8.1 0.5 mol                 co2mol tfac_insert 1.66666666666667 group co2 rigid myrigid

# atom counts

variable        carbon atom "type==1"
variable        oxygen atom "type==2"
group           carbon dynamic co2 var carbon
dynamic group carbon defined
group           oxygen dynamic co2 var oxygen
dynamic group oxygen defined
variable        nC equal count(carbon)
variable        nO equal count(oxygen)

# output

variable        tacc equal f_mygcmc[2]/(f_mygcmc[1]+0.1)
variable        iacc equal f_mygcmc[4]/(f_mygcmc[3]+0.1)
variable        dacc equal f_mygcmc[6]/(f_mygcmc[5]+0.1)
variable        racc equal f_mygcmc[8]/(f_mygcmc[7]+0.1)

# dynamically update default temperature ndof
compute_modify  thermo_temp dynamic/dof yes

thermo_style    custom step temp press pe ke density atoms v_iacc v_dacc v_tacc v_racc v_nC v_nO
thermo          1000

# run

run             20000
Ewald initialization ...
  using 12-bit tables for long-range coulomb
  G vector (1/distance) = 0.16463644
  estimated absolute RMS force accuracy = 0.033206372
  estimated relative force accuracy = 0.0001
  KSpace vectors: actual max1d max3d = 16 2 62
                  kxmax kymax kzmax  = 2 2 2
Generated 1 of 1 mixed pair_coeff terms from arithmetic mixing rule
WARNING: Fix gcmc using full_energy option (src/MC/fix_gcmc.cpp:545)
0 atoms in group FixGCMC:gcmc_exclusion_group:mygcmc
0 atoms in group FixGCMC:rotation_gas_atoms:mygcmc
WARNING: Neighbor exclusions used with KSpace solver may give inconsistent Coulombic energies (src/neighbor.cpp:659)
Neighbor list info ...
  update: every = 1 steps, delay = 10 steps, check = yes
  max neighbors/atom: 2000, page size: 100000
  master list distance cutoff = 16
  ghost atom cutoff = 16
  binsize = 8, bins = 2 2 2
  1 neighbor lists, perpetual/occasional/extra = 1 0 0
  (1) pair lj/cut/coul/long, perpetual
      attributes: half, newton on
      pair build: half/bin/newton
      stencil: half/bin/3d
      bin: standard
Per MPI rank memory allocation (min/avg/max) = 15.98 | 15.98 | 15.98 Mbytes
   Step          Temp          Press          PotEng         KinEng        Density        Atoms        v_iacc         v_dacc         v_tacc         v_racc          v_nC           v_nO     
         0   386.52184      23582.466     -3.243336       14.209828      0.5846359             24   0              0              0              0              8              16           
      1000   428.94255     -422.42418     -8.5806217      13.63836       0.51155641            21   0.055434567    0.058574025    0              0              7              14           
      2000   675.73952      233.54331     -1.5188658      8.0570046      0.21923846             9   0.11389981     0.11705188     0              0              3              6            
      3000   554.41535      145.57544     -2.5722713      9.3647721      0.29231795            12   0.14724583     0.1487285      0              0              4              8            
      4000   295.598        493.56332     -23.35589       15.272772      0.80387436            33   0.13924625     0.13527575     0              0              11             22           
      5000   366.47778     -496.60153     -7.6837736      11.652274      0.51155641            21   0.12399504     0.12439502     0              0              7              14           
      6000   348.14226     -478.39477     -34.364661      21.44675       0.95003334            39   0.1242071      0.12344853     0              0              13             26           
      7000   409.75692      473.48309     -22.831794      21.171064      0.80387436            33   0.11085529     0.11113983     0              0              11             22           
      8000   228.69984      178.3046      -2.5485773      3.8630278      0.29231795            12   0.11426153     0.11624112     0              0              4              8            
      9000   486.65267     -167.89541     -15.608852      20.308668      0.65771539            27   0.12541342     0.12546996     0              0              9              18           
     10000   447.16         24.810849     -1.6263705      5.3315961      0.21923846             9   0.13408778     0.13611451     0              0              3              6            
     11000   447.95067      1601.6456     -32.952684      29.820714      1.0231128             42   0.13481479     0.13499936     0              0              14             28           
     12000   449.15312     -124.71742     -31.02635       25.437963      0.87695385            36   0.12408795     0.12524974     0              0              12             24           
     13000   391.62252     -1278.3998     -20.263025      18.28852       0.73079488            30   0.11895503     0.12074933     0              0              10             20           
     14000   507.79213      204.59384     -5.5780157      13.622687      0.43847693            18   0.11852944     0.12062587     0              0              6              12           
     15000   293.86612      228.51951     -18.497427      13.723359      0.73079488            30   0.1248327      0.1261051      0              0              10             20           
     16000   401.59081     -152.35272     -13.603327      14.763813      0.5846359             24   0.12246261     0.12506158     0              0              8              16           
     17000   302.88363      457.41463     -26.171548      17.153933      0.87695385            36   0.11771425     0.11947602     0              0              12             24           
     18000   313.23405      590.78833     -22.841178      14.627829      0.73079488            30   0.11218637     0.11405053     0              0              10             20           
     19000   217.86614     -851.02605     -16.690476      9.0918461      0.65771539            27   0.10818022     0.11025933     0              0              9              18           
     20000   347.05996     -1114.5685     -27.731887      19.655877      0.87695385            36   0.10600113     0.10801954     0              0              12             24           
Loop time of 12.3169 on 4 procs for 20000 steps with 36 atoms

Performance: 140.295 ns/day, 0.171 hours/ns, 1623.785 timesteps/s, 58.456 katom-step/s
99.8% CPU use with 4 MPI tasks x 1 OpenMP threads

MPI task timing breakdown:
Section |  min time  |  avg time  |  max time  |%varavg| %total
---------------------------------------------------------------
Pair    | 0.64519    | 0.83716    | 1.0492     |  19.4 |  6.80
Bond    | 0.0094923  | 0.010025   | 0.010632   |   0.4 |  0.08
Kspace  | 0.24916    | 0.45733    | 0.64766    |  26.1 |  3.71
Neigh   | 0.030106   | 0.030136   | 0.030172   |   0.0 |  0.24
Comm    | 0.7716     | 0.77506    | 0.7773     |   0.2 |  6.29
Output  | 0.0011776  | 0.0013585  | 0.0018831  |   0.8 |  0.01
Modify  | 10.141     | 10.143     | 10.144     |   0.0 | 82.35
Other   |            | 0.06288    |            |       |  0.51

Nlocal:              9 ave          12 max           6 min
Histogram: 1 0 0 1 0 0 1 0 0 1
Nghost:        2113.25 ave        2140 max        2087 min
Histogram: 1 0 0 1 0 1 0 0 0 1
Neighs:         2774.5 ave        4142 max        1238 min
Histogram: 1 0 0 0 1 0 1 0 0 1

Total # of neighbors = 11098
Ave neighs/atom = 308.27778
Ave special neighs/atom = 2
Neighbor list builds = 20280
Dangerous builds = 0

Total wall time: 0:00:12
