LAMMPS (10 Dec 2025 - Development - patch_10Dec2025-120-ga51f9ba0e7-modified)
OMP_NUM_THREADS environment is not set. Defaulting to 1 thread.
  using 1 OpenMP thread(s) per MPI task
# use bond/react 'create atoms' feature to add 30 new styrene monomers to chain

units real

boundary p p p

atom_style full

pair_style lj/class2/coul/cut 8.5

angle_style class2

bond_style class2

dihedral_style class2

improper_style class2

special_bonds lj/coul 0 0 1
pair_modify tail yes mix sixthpower

variable T equal 530

read_data trimer.data   extra/bond/per/atom 5   extra/angle/per/atom 15   extra/dihedral/per/atom 15   extra/improper/per/atom 25   extra/special/per/atom 25
Reading data file ...
  orthogonal box = (-200 -200 -200) to (200 200 200)
  1 by 2 by 2 MPI processor grid
  reading atom labelmap ...
  reading bond labelmap ...
  reading angle labelmap ...
  reading dihedral labelmap ...
  reading improper labelmap ...
  reading atoms ...
  48 atoms
  scanning bonds ...
  8 = max bonds/atom
  scanning angles ...
  21 = max angles/atom
  scanning dihedrals ...
  33 = max dihedrals/atom
  scanning impropers ...
  26 = max impropers/atom
  orthogonal box = (-200 -200 -200) to (200 200 200)
  1 by 2 by 2 MPI processor grid
  reading bonds ...
  50 bonds
  reading angles ...
  84 angles
  reading dihedrals ...
  127 dihedrals
  reading impropers ...
  20 impropers
Finding 1-2 1-3 1-4 neighbors ...
  special bond factors lj:    0        0        1       
  special bond factors coul:  0        0        1       
     4 = max # of 1-2 neighbors
     8 = max # of 1-3 neighbors
    37 = max # of special neighbors
  special bonds CPU = 0.000 seconds
  read_data CPU = 0.008 seconds

molecule mol1 grow_styrene_pre.molecule_template
Read molecule template mol1:
molecule template: end of styrene chain
  1 molecules
  0 fragments
  0 bodies
  30 atoms with max type 4
  31 bonds with max type 6
  51 angles with max type 10
  73 dihedrals with max type 13
  13 impropers with max type 3
molecule mol2 grow_styrene_post.molecule_template
Read molecule template mol2:
molecule template: end of chain plus polymerized styrene
  1 molecules
  1 fragments
  0 bodies
  46 atoms with max type 4
  48 bonds with max type 6
  81 angles with max type 10
  121 dihedrals with max type 13
  19 impropers with max type 3

fix myrxns all bond/react stabilization yes statted_grp .03     max_rxn rxn1 30     react rxn1 all 1 0 3.0 mol1 mol2 grow_styrene.map         modify_create fit create_fit overlap 2.0 stabilize_steps 200
dynamic group bond_react_MASTER_group defined
dynamic group statted_grp_REACT defined

fix 1 statted_grp_REACT nvt temp $T $T 100
fix 1 statted_grp_REACT nvt temp 530 $T 100
fix 1 statted_grp_REACT nvt temp 530 530 100

fix 4 bond_react_MASTER_group temp/rescale 1 $T $T 1 1
fix 4 bond_react_MASTER_group temp/rescale 1 530 $T 1 1
fix 4 bond_react_MASTER_group temp/rescale 1 530 530 1 1

thermo_style custom step temp press density f_myrxns[*]
thermo_modify colname auto

thermo 100

run 8000

CITE-CITE-CITE-CITE-CITE-CITE-CITE-CITE-CITE-CITE-CITE-CITE-CITE

Your simulation uses code contributions which should be cited:

- Type Label Framework: https://doi.org/10.1021/acs.jpcb.3c08419

@Article{Gissinger24,
 author = {Jacob R. Gissinger, Ilia Nikiforov, Yaser Afshar, Brendon Waters, Moon-ki Choi, Daniel S. Karls, Alexander Stukowski, Wonpil Im, Hendrik Heinz, Axel Kohlmeyer, and Ellad B. Tadmor},
 title = {Type Label Framework for Bonded Force Fields in LAMMPS},
 journal = {J. Phys. Chem. B},
 year =    2024,
 volume =  128,
 number =  13,
 pages =   {3282--3297}
}

- fix bond/react: https://reacter.org, https://doi.org/10.1016/j.polymer.2017.09.038, https://doi.org/10.1021/acs.macromol.0c02012, https://doi.org/10.1016/j.cpc.2024.109287

@Article{Gissinger17,
 author = {J. R. Gissinger and B. D. Jensen and K. E. Wise},
 title = {Modeling Chemical Reactions in Classical Molecular Dynamics Simulations},
 journal = {Polymer},
 year =    2017,
 volume =  128,
 pages =   {211--217}
}

@Article{Gissinger20,
 author = {J. R. Gissinger, B. D. Jensen, K. E. Wise},
 title = {{REACTER}: A Heuristic Method for Reactive Molecular Dynamics},
 journal = {Macromolecules},
 year =    2020,
 volume =  53,
 number =  22,
 pages =   {9953--9961}
}

@Article{Gissinger24,
 author = {J. R. Gissinger, B. D. Jensen, K. E. Wise},
 title = {Molecular Modeling of Reactive Systems with REACTER},
 journal = {Computer Physics Communications},
 year =    2024,
 volume =  304,
 number =  109287
}

CITE-CITE-CITE-CITE-CITE-CITE-CITE-CITE-CITE-CITE-CITE-CITE-CITE

Generated 6 of 6 mixed pair_coeff terms from sixthpower/sixthpower mixing rule
Neighbor list info ...
  update: every = 1 steps, delay = 0 steps, check = yes
  max neighbors/atom: 2000, page size: 100000
  master list distance cutoff = 10.5
  ghost atom cutoff = 10.5
  binsize = 5.25, bins = 77 77 77
  2 neighbor lists, perpetual/occasional/extra = 1 1 0
  (1) pair lj/class2/coul/cut, perpetual
      attributes: half, newton on
      pair build: half/bin/newton
      stencil: half/bin/3d
      bin: standard
  (2) fix bond/react, occasional, copy from (1)
      attributes: half, newton on
      pair build: copy
      stencil: none
      bin: none
Per MPI rank memory allocation (min/avg/max) = 33.79 | 33.99 | 34.57 Mbytes
   Step          Temp          Press         Density     f_myrxns:rxn1 
         0   0              0.21036486     8.1070333e-06  0            
       100   671.99491     -0.040832566    1.0809378e-05  1            
       200   815.53585      0.16195456     1.0809378e-05  1            
       300   972.57557     -0.31684828     1.3511722e-05  2            
       400   1037.8793      0.28551039     1.3511722e-05  2            
       500   1073.6645      0.0037129406   1.6214067e-05  3            
       600   1086.433       0.022203019    1.6214067e-05  3            
       700   1011.575      -14.41751       1.8916411e-05  4            
       800   1276.5177     -0.30044572     1.8916411e-05  4            
       900   1772.3926     -19.01301       2.1618755e-05  5            
      1000   1633.2879     -0.12593171     2.1618755e-05  5            
      1100   1546.1631     -24.257634      2.43211e-05    6            
      1200   1663.9422      0.11893631     2.43211e-05    6            
      1300   1985.3802     -30.50461       2.7023444e-05  7            
      1400   1777.1248     -0.011469801    2.7023444e-05  7            
      1500   1911.7457     -36.752053      2.9725789e-05  8            
      1600   1872.8765      0.3211445      2.9725789e-05  8            
      1700   2222.2672     -44.666898      3.2428133e-05  9            
      1800   2199.8082      0.1719691      3.2428133e-05  9            
      1900   2541.3458     -56.492997      3.5130478e-05  10           
      2000   2345.9928     -0.16710997     3.5130478e-05  10           
      2100   2555.6481     -66.964663      3.7832822e-05  11           
      2200   2646.8489      0.015542429    3.7832822e-05  11           
      2300   2571.5609      0.51077446     3.7832822e-05  11           
      2400   2638.3228     -0.42501856     4.0535167e-05  12           
      2500   2939.2719     -0.13365666     4.0535167e-05  12           
      2600   2550.1782     -0.0014617028   4.3237511e-05  13           
      2700   2819.7157     -0.095752113    4.3237511e-05  13           
      2800   3158.648      -0.1548828      4.5939855e-05  14           
      2900   3267.0696     -0.15769637     4.5939855e-05  14           
      3000   3119.2853     -0.3295428      4.86422e-05    15           
      3100   3414.5332     -0.32231861     4.86422e-05    15           
      3200   3445.4208      0.12037818     5.1344544e-05  16           
      3300   3283.7065      0.26308172     5.1344544e-05  16           
      3400   3640.7258      0.021959462    5.4046889e-05  17           
      3500   3588.3485     -0.0022063063   5.4046889e-05  17           
      3600   3671.4798     -47.993738      5.6749233e-05  18           
      3700   3600.5468     -0.31200996     5.6749233e-05  18           
      3800   3909.9272      0.27689629     5.6749233e-05  18           
      3900   4033.4421      0.051226646    5.9451578e-05  19           
      4000   3881.4736     -0.49244344     5.9451578e-05  19           
      4100   4598.6578      0.26883958     6.2153922e-05  20           
      4200   4171.3083     -0.32344248     6.2153922e-05  20           
      4300   4256.9502      0.52348579     6.4856266e-05  21           
      4400   4338.0894     -0.38836904     6.4856266e-05  21           
      4500   4574.9893      0.028212285    6.4856266e-05  21           
      4600   4374.5487     -0.069343397    6.7558611e-05  22           
      4700   4216.8511      0.36738449     6.7558611e-05  22           
      4800   4424.3281     -0.23687362     7.0260955e-05  23           
      4900   4822.1144     -0.21266153     7.0260955e-05  23           
      5000   4684.874      -0.42990731     7.29633e-05    24           
      5100   4825.1153     -0.49929897     7.29633e-05    24           
      5200   4843.7315     -1.0340467      7.5665644e-05  25           
      5300   4650.4044      0.11725763     7.5665644e-05  25           
      5400   5236.5551     -0.60025579     7.8367989e-05  26           
      5500   5544.1803     -0.30555576     7.8367989e-05  26           
      5600   5237.7393     -1.010772       8.1070333e-05  27           
      5700   5263.0968     -0.39405014     8.1070333e-05  27           
      5800   5828.7019     -2.3283355      8.3772677e-05  28           
      5900   5279.7544      0.0088167221   8.3772677e-05  28           
      6000   5394.375      -3.6212362      8.6475022e-05  29           
      6100   5584.8701      0.57866253     8.6475022e-05  29           
      6200   5807.6669     -4.7592289      8.9177366e-05  30           
      6300   6086.8486      0.40891374     8.9177366e-05  30           
      6400   6006.2712     -0.089980295    8.9177366e-05  30           
      6500   5648.3669     -0.015263393    8.9177366e-05  30           
      6600   5758.5253     -0.81759772     8.9177366e-05  30           
      6700   6074.6226      0.3834391      8.9177366e-05  30           
      6800   6155.1442      0.39085109     8.9177366e-05  30           
      6900   6170.0942     -0.15934354     8.9177366e-05  30           
      7000   5672.8637      0.48943879     8.9177366e-05  30           
      7100   5625.9352      0.1431848      8.9177366e-05  30           
      7200   5774.49       -0.24478725     8.9177366e-05  30           
      7300   5667.2145      0.2235811      8.9177366e-05  30           
      7400   5911.2168     -0.32460041     8.9177366e-05  30           
      7500   5893.8407     -0.41412125     8.9177366e-05  30           
      7600   6269.1936     -0.14596531     8.9177366e-05  30           
      7700   6382.5545      0.53902432     8.9177366e-05  30           
      7800   5763.4975     -0.2294707      8.9177366e-05  30           
      7900   5668.2763      0.69503362     8.9177366e-05  30           
      8000   5891.4935      0.055143451    8.9177366e-05  30           
Loop time of 6.23253 on 4 procs for 8000 steps with 528 atoms

Performance: 110.902 ns/day, 0.216 hours/ns, 1283.588 timesteps/s, 677.734 katom-step/s
99.6% CPU use with 4 MPI tasks x 1 OpenMP threads

MPI task timing breakdown:
Section |  min time  |  avg time  |  max time  |%varavg| %total
---------------------------------------------------------------
Pair    | 0.00035774 | 0.41759    | 1.6693     | 111.8 |  6.70
Bond    | 0.00074008 | 0.99755    | 3.9878     | 172.9 | 16.01
Neigh   | 0.31112    | 0.31135    | 0.31154    |   0.0 |  5.00
Comm    | 0.0077756  | 0.0081192  | 0.0084118  |   0.3 |  0.13
Output  | 0.00064192 | 0.00075544 | 0.0010767  |   0.0 |  0.01
Modify  | 0.24677    | 4.4896     | 5.9041     | 115.6 | 72.03
Other   |            | 0.007581   |            |       |  0.12

Nlocal:            132 ave         528 max           0 min
Histogram: 3 0 0 0 0 0 0 0 0 1
Nghost:              0 ave           0 max           0 min
Histogram: 4 0 0 0 0 0 0 0 0 0
Neighs:        8275.75 ave       33103 max           0 min
Histogram: 3 0 0 0 0 0 0 0 0 1

Total # of neighbors = 33103
Ave neighs/atom = 62.695076
Ave special neighs/atom = 11.215909
Neighbor list builds = 744
Dangerous builds = 0

# write_data final.data nofix
Total wall time: 0:00:06
